Generated by Psi4
        SP                           DFT                   AUG-CC-PVDZ
Number of atoms                            I                6
Charge                                     I                0
Multiplicity                               I                1
Number of electrons                        I               10
Number of alpha electrons                  I                5
Number of beta electrons                   I                5
Number of basis functions                  I               82
Number of independent functions            I               82
Atomic numbers                             I   N=           6
           0           0           0           8           1           1
Nuclear charges                            R   N=           6
  0.00000000e+00  0.00000000e+00  0.00000000e+00  8.00000000e+00  1.00000000e+00
  1.00000000e+00
Current cartesian coordinates              R   N=          18
 -1.00647851e-01  2.69065098e+00  0.00000000e+00  8.07220047e-01  3.31106319e+00
 -1.44615639e+00  8.07220047e-01  3.31106319e+00  1.44615639e+00  1.05680007e-01
 -2.82242659e+00  0.00000000e+00 -1.27721957e-01 -1.00729739e+00  0.00000000e+00
 -1.56658211e+00 -3.52345451e+00  0.00000000e+00
Integer atomic weights                     I   N=           6
           0           0           0          15           1           1
Real atomic weights                        R   N=           6
  0.00000000e+00  0.00000000e+00  0.00000000e+00  1.59949146e+01  1.00782503e+00
  1.00782503e+00
Number of primitive shells                 I               78
Number of contracted shells                I               38
Pure/Cartesian d shells                    I                0
Pure/Cartesian f shells                    I                0
Highest angular momentum                   I                2
Largest degree of contraction              I                8
Shell types                                I   N=          38
           0           0           0           1           1          -2
           0           1          -2           0           0           1
           0           1           0           0           1           0
           1           0           0           0           1           1
          -2           0           1          -2           0           0
           1           0           1           0           0           1
           0           1
Number of primitives per shell             I   N=          38
           8           8           1           3           1           1
           1           1           1           3           1           1
           1           1           3           1           1           1
           1           8           8           1           3           1
           1           1           1           1           3           1
           1           1           1           3           1           1
           1           1
Shell to atom map                          I   N=          38
           1           1           1           1           1           1
           1           1           1           2           2           2
           2           2           3           3           3           3
           3           4           4           4           4           4
           4           4           4           4           5           5
           5           5           5           6           6           6
           6           6
Primitive exponents                        R   N=          78
  1.17200000e+04  1.75900000e+03  4.00800000e+02  1.13700000e+02  3.70300000e+01
  1.32700000e+01  5.02500000e+00  1.01300000e+00  1.17200000e+04  1.75900000e+03
  4.00800000e+02  1.13700000e+02  3.70300000e+01  1.32700000e+01  5.02500000e+00
  1.01300000e+00  3.02300000e-01  1.77000000e+01  3.85400000e+00  1.04600000e+00
  2.75300000e-01  1.18500000e+00  7.89600000e-02  6.85600000e-02  3.32000000e-01
  1.30100000e+01  1.96200000e+00  4.44600000e-01  1.22000000e-01  7.27000000e-01
  2.97400000e-02  1.41000000e-01  1.30100000e+01  1.96200000e+00  4.44600000e-01
  1.22000000e-01  7.27000000e-01  2.97400000e-02  1.41000000e-01  1.17200000e+04
  1.75900000e+03  4.00800000e+02  1.13700000e+02  3.70300000e+01  1.32700000e+01
  5.02500000e+00  1.01300000e+00  1.17200000e+04  1.75900000e+03  4.00800000e+02
  1.13700000e+02  3.70300000e+01  1.32700000e+01  5.02500000e+00  1.01300000e+00
  3.02300000e-01  1.77000000e+01  3.85400000e+00  1.04600000e+00  2.75300000e-01
  1.18500000e+00  7.89600000e-02  6.85600000e-02  3.32000000e-01  1.30100000e+01
  1.96200000e+00  4.44600000e-01  1.22000000e-01  7.27000000e-01  2.97400000e-02
  1.41000000e-01  1.30100000e+01  1.96200000e+00  4.44600000e-01  1.22000000e-01
  7.27000000e-01  2.97400000e-02  1.41000000e-01
Contraction coefficients                   R   N=          78
  7.09645947e-04  5.46727229e-03  2.78231186e-02  1.04747740e-01  2.82920846e-01
  4.48495239e-01  2.70816885e-01  1.54502916e-02 -3.14443412e-04 -2.48213768e-03
 -1.23163554e-02 -5.05389173e-02 -1.39384903e-01 -3.25077495e-01 -2.29848308e-01
  1.09537935e+00  1.00000000e+00  6.26791663e-02  3.33536566e-01  7.41239642e-01
  1.00000000e+00  1.00000000e+00  1.00000000e+00  1.00000000e+00  1.00000000e+00
  3.34987264e-02  2.34800801e-01  8.13682958e-01  1.00000000e+00  1.00000000e+00
  1.00000000e+00  1.00000000e+00  3.34987264e-02  2.34800801e-01  8.13682958e-01
  1.00000000e+00  1.00000000e+00  1.00000000e+00  1.00000000e+00  7.09645947e-04
  5.46727229e-03  2.78231186e-02  1.04747740e-01  2.82920846e-01  4.48495239e-01
  2.70816885e-01  1.54502916e-02 -3.14443412e-04 -2.48213768e-03 -1.23163554e-02
 -5.05389173e-02 -1.39384903e-01 -3.25077495e-01 -2.29848308e-01  1.09537935e+00
  1.00000000e+00  6.26791663e-02  3.33536566e-01  7.41239642e-01  1.00000000e+00
  1.00000000e+00  1.00000000e+00  1.00000000e+00  1.00000000e+00  3.34987264e-02
  2.34800801e-01  8.13682958e-01  1.00000000e+00  1.00000000e+00  1.00000000e+00
  1.00000000e+00  3.34987264e-02  2.34800801e-01  8.13682958e-01  1.00000000e+00
  1.00000000e+00  1.00000000e+00  1.00000000e+00
Coordinates of each shell                  R   N=         114
 -1.00647851e-01  2.69065098e+00  0.00000000e+00 -1.00647851e-01  2.69065098e+00
  0.00000000e+00 -1.00647851e-01  2.69065098e+00  0.00000000e+00 -1.00647851e-01
  2.69065098e+00  0.00000000e+00 -1.00647851e-01  2.69065098e+00  0.00000000e+00
 -1.00647851e-01  2.69065098e+00  0.00000000e+00 -1.00647851e-01  2.69065098e+00
  0.00000000e+00 -1.00647851e-01  2.69065098e+00  0.00000000e+00 -1.00647851e-01
  2.69065098e+00  0.00000000e+00  8.07220047e-01  3.31106319e+00 -1.44615639e+00
  8.07220047e-01  3.31106319e+00 -1.44615639e+00  8.07220047e-01  3.31106319e+00
 -1.44615639e+00  8.07220047e-01  3.31106319e+00 -1.44615639e+00  8.07220047e-01
  3.31106319e+00 -1.44615639e+00  8.07220047e-01  3.31106319e+00  1.44615639e+00
  8.07220047e-01  3.31106319e+00  1.44615639e+00  8.07220047e-01  3.31106319e+00
  1.44615639e+00  8.07220047e-01  3.31106319e+00  1.44615639e+00  8.07220047e-01
  3.31106319e+00  1.44615639e+00  1.05680007e-01 -2.82242659e+00  0.00000000e+00
  1.05680007e-01 -2.82242659e+00  0.00000000e+00  1.05680007e-01 -2.82242659e+00
  0.00000000e+00  1.05680007e-01 -2.82242659e+00  0.00000000e+00  1.05680007e-01
 -2.82242659e+00  0.00000000e+00  1.05680007e-01 -2.82242659e+00  0.00000000e+00
  1.05680007e-01 -2.82242659e+00  0.00000000e+00  1.05680007e-01 -2.82242659e+00
  0.00000000e+00  1.05680007e-01 -2.82242659e+00  0.00000000e+00 -1.27721957e-01
 -1.00729739e+00  0.00000000e+00 -1.27721957e-01 -1.00729739e+00  0.00000000e+00
 -1.27721957e-01 -1.00729739e+00  0.00000000e+00 -1.27721957e-01 -1.00729739e+00
  0.00000000e+00 -1.27721957e-01 -1.00729739e+00  0.00000000e+00 -1.56658211e+00
 -3.52345451e+00  0.00000000e+00 -1.56658211e+00 -3.52345451e+00  0.00000000e+00
 -1.56658211e+00 -3.52345451e+00  0.00000000e+00 -1.56658211e+00 -3.52345451e+00
  0.00000000e+00 -1.56658211e+00 -3.52345451e+00  0.00000000e+00
Total Energy                               R     -7.639483857994747e+01
Alpha Orbital Energies                     R   N=          82
 -1.89933573e+01 -1.14949550e+00 -6.62883910e-01 -5.17742769e-01 -4.42770417e-01
  2.41039729e-02  4.89677585e-02  6.14293892e-02  8.39274128e-02  1.28593330e-01
  1.42194123e-01  1.81389212e-01  1.89025205e-01  2.11944012e-01  2.15152698e-01
  2.23111884e-01  2.68016957e-01  3.13989753e-01  3.51544282e-01  3.59987574e-01
  3.81715467e-01  3.86862258e-01  3.99980736e-01  4.25397725e-01  4.43671084e-01
  4.81547656e-01  5.14350552e-01  5.14549571e-01  5.56034633e-01  6.02257425e-01
  6.12040713e-01  6.29591722e-01  7.19598584e-01  7.77283665e-01  8.88382631e-01
  9.32717491e-01  1.02559598e+00  1.05608168e+00  1.10138028e+00  1.11997080e+00
  1.14516181e+00  1.15973827e+00  1.24568575e+00  1.26057505e+00  1.30941625e+00
  1.32889813e+00  1.34843553e+00  1.37576045e+00  1.40471648e+00  1.44530083e+00
  1.63884210e+00  1.86709415e+00  1.88933798e+00  1.97806827e+00  2.04594306e+00
  2.25730011e+00  2.27235454e+00  2.31271121e+00  2.49022489e+00  2.52340856e+00
  2.53354916e+00  2.54355486e+00  2.59106905e+00  2.73568180e+00  2.78192014e+00
  3.40334873e+00  3.40960098e+00  3.44498045e+00  3.46340887e+00  3.82455230e+00
  3.90552903e+00  4.02646727e+00  4.11986443e+00  4.95112984e+00  4.95689238e+00
  5.03475815e+00  5.11135929e+00  5.36552939e+00  5.91390609e+00  6.60476298e+00
  7.02647656e+00  3.35369622e+01
Alpha MO coefficients                      R   N=        6724
  1.02892936e-04  1.82209849e-04 -5.19512179e-04 -1.78294223e-05 -5.43724578e-05
  0.00000000e+00  1.56915933e-04  1.05375184e-03  0.00000000e+00  4.97427198e-05
  0.00000000e+00  0.00000000e+00  6.92845249e-05  5.72060329e-05 -1.09875216e-03
  8.72430164e-05  6.98129403e-04  0.00000000e+00 -4.72002407e-05  0.00000000e+00
  0.00000000e+00 -3.70610490e-05 -2.25356534e-04  1.05381631e-04 -6.62568047e-04
  2.80347928e-05  1.04310365e-05 -2.21619377e-05  1.22402090e-04  2.15379536e-04
  2.79315558e-04 -2.75542326e-04  1.05381631e-04 -6.62568047e-04  2.80347928e-05
  1.04310365e-05  2.21619377e-05  1.22402090e-04  2.15379536e-04  2.79315558e-04
  2.75542326e-04 -1.00521420e+00 -1.18417621e-02  2.17376384e-02  1.52559186e-03
 -9.86986956e-04  0.00000000e+00 -2.35991547e-03  2.58126330e-03  0.00000000e+00
  2.54169860e-04  0.00000000e+00  0.00000000e+00  1.40019369e-05 -1.84089471e-04
  1.39292534e-02 -1.18328879e-03  2.28338842e-03  0.00000000e+00 -2.98656156e-04
  0.00000000e+00  0.00000000e+00  8.97367330e-05  3.56156133e-04 -1.11027442e-03
 -1.45802142e-02  1.06327040e-04 -8.64232524e-04  0.00000000e+00 -1.22532739e-03
 -7.85545256e-04  9.77808692e-03  0.00000000e+00 -7.40103214e-04 -5.42721472e-03
  6.85232150e-04  2.41735324e-04  0.00000000e+00 -5.06719567e-04 -2.55887624e-03
 -3.65283473e-04  0.00000000e+00 -1.49026867e-05 -1.48819557e-05  3.10090968e-03
 -1.64101089e-04 -2.75196855e-04  0.00000000e+00  3.55130665e-03  3.74950565e-03
  0.00000000e+00  6.91540416e-05  0.00000000e+00  0.00000000e+00 -3.60249177e-05
  3.08891045e-04  2.06235583e-02  8.40001610e-03 -2.49803677e-04  0.00000000e+00
  1.05455058e-03  0.00000000e+00  0.00000000e+00  1.29433511e-03 -9.71893808e-04
 -7.39693005e-04 -1.30957830e-02  2.85235056e-04  3.20812527e-04 -5.18182070e-04
 -8.63878800e-04 -8.86507738e-05  1.91360161e-03 -1.53079454e-03 -7.39693005e-04
 -1.30957830e-02  2.85235056e-04  3.20812527e-04  5.18182070e-04 -8.63878800e-04
 -8.86507738e-05  1.91360161e-03  1.53079454e-03 -8.10125891e-03  4.38207024e-01
  3.60578950e-01 -9.56587478e-02  5.29020260e-02  0.00000000e+00  1.10405594e-02
 -3.01416442e-03  0.00000000e+00 -8.85654900e-03  0.00000000e+00  0.00000000e+00
 -4.78423481e-04  8.95247844e-04  7.30248833e-02 -1.23377343e-02  6.33094919e-03
  0.00000000e+00  1.90587235e-02  0.00000000e+00  0.00000000e+00  2.95241838e-03
 -4.67857186e-03  2.11868838e-01 -3.22677537e-02 -3.97645026e-04 -4.07163552e-02
  0.00000000e+00 -2.73466439e-03 -6.34644474e-03  1.63994215e-02  0.00000000e+00
  2.18050890e-01 -1.82217139e-02  3.56055492e-02  2.10166576e-02  0.00000000e+00
 -2.44916993e-03 -5.88574317e-03  1.90270982e-03  0.00000000e+00 -2.91614224e-04
 -4.98521252e-04  3.18852605e-03 -9.94910530e-05 -1.46242654e-04  0.00000000e+00
  2.23914898e-03 -2.79773720e-03  0.00000000e+00 -1.90717271e-04  0.00000000e+00
  0.00000000e+00 -3.56177561e-04 -2.03112440e-05  2.04412094e-02  4.53608788e-03
 -5.54857762e-03  0.00000000e+00  9.85408920e-04  0.00000000e+00  0.00000000e+00
  8.39790016e-04  1.32155054e-04 -1.17447220e-03 -5.70807985e-03  3.58222099e-05
  4.58270353e-04 -1.76788207e-04  2.98699254e-04 -1.15428030e-03 -2.27780447e-05
  5.66924182e-04 -1.17447220e-03 -5.70807985e-03  3.58222099e-05  4.58270353e-04
  1.76788207e-04  2.98699254e-04 -1.15428030e-03 -2.27780447e-05 -5.66924182e-04
  4.28129191e-04  2.63278576e-03 -2.43913467e-04  2.59344108e-01  4.46146130e-01
  0.00000000e+00  7.45968281e-02  1.28344192e-01  0.00000000e+00  1.84893743e-04
  0.00000000e+00  0.00000000e+00 -2.11842601e-02 -1.24946420e-02 -5.05413535e-03
  5.22484413e-03  4.99842790e-03  0.00000000e+00 -8.31519479e-04  0.00000000e+00
  0.00000000e+00  3.32138478e-02  2.05016940e-02  3.60708043e-01  1.37232188e-01
  1.67492313e-02 -3.47661325e-02  0.00000000e+00 -2.10719334e-03 -1.98689761e-03
 -3.98621038e-02  0.00000000e+00 -3.62233661e-01 -1.38361445e-01 -3.88164140e-02
 -2.97094949e-03  0.00000000e+00 -9.07591557e-04 -2.27065551e-02 -1.33848021e-02
  0.00000000e+00 -2.64806686e-04 -4.54174920e-04  3.26266040e-03 -1.02883913e-04
 -1.02778430e-04  0.00000000e+00  2.91280036e-03 -2.91742865e-04  0.00000000e+00
 -7.94361732e-05  0.00000000e+00  0.00000000e+00 -2.08038818e-04  1.56652333e-04
  2.57447689e-02  1.03883002e-02 -1.68456045e-03  0.00000000e+00  8.08296913e-04
  0.00000000e+00  0.00000000e+00  5.66161660e-04 -2.99938598e-04 -6.86853342e-04
 -1.25194658e-02  2.35398800e-04  3.40758315e-04 -3.56595363e-04 -5.03880535e-03
 -8.18921622e-04  9.74300471e-04 -4.95612662e-04 -6.86853342e-04 -1.25194658e-02
  2.35398800e-04  3.40758315e-04  3.56595363e-04 -5.03880535e-03 -8.18921622e-04
  9.74300471e-04  4.95612662e-04  2.52705129e-03 -1.64001091e-01 -3.31398904e-01
 -4.81251635e-01  2.78946403e-01  0.00000000e+00 -2.59374295e-01  1.49208599e-01
  0.00000000e+00 -8.78625538e-03  0.00000000e+00  0.00000000e+00  6.35486227e-03
 -1.08863555e-02 -1.22779063e-01 -4.53576789e-02  1.52365273e-02  0.00000000e+00
  3.62220276e-03  0.00000000e+00  0.00000000e+00  1.12548846e-02 -1.86757316e-02
  2.06938118e-01  8.16817528e-02 -1.68764636e-02 -2.08505176e-02  0.00000000e+00
  2.66731374e-02 -1.87854489e-02 -4.31746111e-03  0.00000000e+00  2.04918717e-01
  6.04876012e-02  9.10080332e-03  2.52666036e-02  0.00000000e+00 -4.21457661e-03
 -1.39372302e-02  1.08095956e-02  0.00000000e+00  0.00000000e+00  0.00000000e+00
  0.00000000e+00  0.00000000e+00  0.00000000e+00 -3.01067247e-05  0.00000000e+00
  0.00000000e+00  9.83063354e-04  0.00000000e+00 -1.09963603e-05  2.41925455e-06
  0.00000000e+00  0.00000000e+00  0.00000000e+00  0.00000000e+00  0.00000000e+00
  3.80323049e-03  0.00000000e+00  5.08301852e-04 -1.16620083e-04  0.00000000e+00
  0.00000000e+00  2.79483183e-04  4.48524430e-03  1.44807491e-05 -1.75652232e-04
  9.19426932e-05  5.96689440e-03 -8.69601685e-04 -1.61837704e-03 -4.30120198e-05
 -2.79483183e-04 -4.48524430e-03 -1.44807491e-05  1.75652232e-04  9.19426932e-05
 -5.96689440e-03  8.69601685e-04  1.61837704e-03 -4.30120198e-05  0.00000000e+00
  0.00000000e+00  0.00000000e+00  0.00000000e+00  0.00000000e+00  6.34249172e-01
  0.00000000e+00  0.00000000e+00  4.22622544e-01  0.00000000e+00 -1.27701527e-02
  7.25082022e-03  0.00000000e+00  0.00000000e+00  0.00000000e+00  0.00000000e+00
  0.00000000e+00  8.71021178e-02  0.00000000e+00 -1.73870924e-02  9.87772714e-03
  0.00000000e+00  0.00000000e+00  0.00000000e+00  0.00000000e+00  0.00000000e+00
  0.00000000e+00  2.78009846e-02  0.00000000e+00  0.00000000e+00  0.00000000e+00
  2.54365503e-02  0.00000000e+00  0.00000000e+00  0.00000000e+00  0.00000000e+00
  2.81808170e-02  0.00000000e+00  0.00000000e+00  0.00000000e+00  2.43610921e-02
  4.48288555e-03  7.81229578e-03 -7.82880057e-02  1.18161338e-03  8.71079199e-05
  0.00000000e+00 -4.03865783e-02 -1.62409830e-02  0.00000000e+00 -6.92182451e-04
  0.00000000e+00  0.00000000e+00 -1.42404676e-04  1.54943771e-06 -9.76388694e-01
 -2.85778009e-01 -1.17806743e-01  0.00000000e+00 -2.58353413e-03  0.00000000e+00
  0.00000000e+00 -1.39832334e-03 -4.86186763e-03  2.51406109e-03  3.58112750e-01
 -2.44375919e-03 -1.71811668e-03  3.81995696e-03  6.30207857e-01 -1.99989962e-02
 -2.96396941e-02  6.84938670e-02  2.51406109e-03  3.58112750e-01 -2.44375919e-03
 -1.71811668e-03 -3.81995696e-03  6.30207857e-01 -1.99989962e-02 -2.96396941e-02
 -6.84938670e-02 -1.34233680e-03 -6.30387254e-02 -1.56678691e-01  5.75304946e-02
 -4.67677233e-02  0.00000000e+00  7.99469432e-02 -2.70226025e-02  0.00000000e+00
  1.00670757e-03  0.00000000e+00  0.00000000e+00 -5.79900885e-04  2.20991712e-03
 -6.98323690e-01  2.07989625e-01  1.05115708e-01  0.00000000e+00  2.78272925e-03
  0.00000000e+00  0.00000000e+00 -5.51275194e-03 -5.43419245e-03  1.81978053e-02
  1.34878921e-01 -6.69006787e-04  1.00002124e-02  0.00000000e+00 -6.03308289e-01
  2.05096544e-02  6.25322710e-02  0.00000000e+00  2.54034832e-02  4.35590332e-01
 -5.30897579e-03 -3.90672219e-03  0.00000000e+00  1.11621723e+00  8.59855906e-02
  3.52405726e-02  0.00000000e+00  4.24277997e-03  7.41736862e-03 -7.24249290e-02
  1.11901675e-03 -8.95436120e-05  0.00000000e+00 -3.09882779e-02 -9.39461588e-03
  0.00000000e+00 -3.00254840e-04  0.00000000e+00  0.00000000e+00 -9.46080096e-04
  2.87761985e-04 -9.23409267e-01 -1.53403543e-01 -1.04989183e-01  0.00000000e+00
 -1.42050428e-03  0.00000000e+00  0.00000000e+00  5.96631973e-03 -3.88490529e-03
  2.48496667e-03  2.77934622e-01 -1.06968062e-03 -1.07403821e-03  1.32720176e-03
  6.02389185e-01 -4.49314994e-02 -2.98219629e-02  7.20632754e-02  2.48496667e-03
  2.77934622e-01 -1.06968062e-03 -1.07403821e-03 -1.32720176e-03  6.02389185e-01
 -4.49314994e-02 -2.98219629e-02 -7.20632754e-02 -1.98183469e-03  3.44231796e-02
  1.51652204e-01 -6.33036125e-02 -3.86519162e-02  0.00000000e+00 -1.05854479e-01
 -3.67060971e-02  0.00000000e+00 -8.17620026e-04  0.00000000e+00  0.00000000e+00
  1.26922016e-03 -7.55602604e-04  9.39828070e-01 -3.18200679e-01 -3.33429070e-01
  0.00000000e+00 -2.77223336e-03  0.00000000e+00  0.00000000e+00  6.78815437e-03
  8.51072559e-03 -1.89358830e-02  3.16601096e-02 -2.82271313e-03 -8.71230746e-04
  0.00000000e+00  6.22794337e-01  2.12623331e-02  5.93966956e-02  0.00000000e+00
 -1.84580922e-02 -5.65583210e-01  7.21797238e-03  1.62975001e-03  0.00000000e+00
 -1.95285284e+00 -1.37170166e-01 -2.33494342e-02  0.00000000e+00  0.00000000e+00
  0.00000000e+00  0.00000000e+00  0.00000000e+00  0.00000000e+00  2.15644933e-03
  0.00000000e+00  0.00000000e+00 -7.63470707e-02  0.00000000e+00  9.78201813e-05
  9.68898542e-06  0.00000000e+00  0.00000000e+00  0.00000000e+00  0.00000000e+00
  0.00000000e+00 -7.06997231e-01  0.00000000e+00 -1.09820655e-02 -6.53589617e-03
  0.00000000e+00  0.00000000e+00 -7.99425171e-03 -4.96072722e-01 -6.65280930e-04
  6.02720889e-04 -3.25299365e-03 -2.86127925e+00  1.19745110e-01  7.41571140e-02
 -1.21654632e-01  7.99425171e-03  4.96072722e-01  6.65280930e-04 -6.02720889e-04
 -3.25299365e-03  2.86127925e+00 -1.19745110e-01 -7.41571140e-02 -1.21654632e-01
  0.00000000e+00  0.00000000e+00  0.00000000e+00  0.00000000e+00  0.00000000e+00
 -4.12376721e-02  0.00000000e+00  0.00000000e+00 -4.18246176e-02  0.00000000e+00
  9.90733896e-04  3.58570961e-04  0.00000000e+00  0.00000000e+00  0.00000000e+00
  0.00000000e+00  0.00000000e+00 -5.74496546e-02  0.00000000e+00  1.87008715e-03
 -9.78708964e-04  0.00000000e+00  0.00000000e+00  0.00000000e+00  0.00000000e+00
  0.00000000e+00  0.00000000e+00  4.82597528e-04  0.00000000e+00  0.00000000e+00
  0.00000000e+00  4.38265291e-02  0.00000000e+00  0.00000000e+00  0.00000000e+00
  0.00000000e+00 -1.63288610e-03  0.00000000e+00  0.00000000e+00  0.00000000e+00
  8.08768883e-03  5.26656311e-03  9.22989096e-03 -7.66766031e-02  7.38445489e-05
 -7.71788565e-04  0.00000000e+00 -1.16817552e-02  8.75050628e-03  0.00000000e+00
  1.51678879e-04  0.00000000e+00  0.00000000e+00  6.62831909e-04  1.55628707e-03
 -4.30474042e-01 -1.86294817e-01 -4.34785776e-01  0.00000000e+00 -2.31501822e-03
  0.00000000e+00  0.00000000e+00 -4.13241381e-03 -1.16360152e-02  1.86609517e-03
  1.98872450e-01 -5.75797114e-05 -1.09138066e-03  1.15023801e-03  1.33217660e+00
 -2.33658452e-02  1.22955399e-02  4.79245727e-02  1.86609517e-03  1.98872450e-01
 -5.75797114e-05 -1.09138066e-03 -1.15023801e-03  1.33217660e+00 -2.33658452e-02
  1.22955399e-02 -4.79245727e-02  9.84102540e-04  5.39130120e-02  1.59147711e-01
  2.43064868e-03  7.04249111e-02  0.00000000e+00 -7.12620943e-03  1.59191353e-01
  0.00000000e+00 -1.45263669e-03  0.00000000e+00  0.00000000e+00  5.23515207e-05
 -1.70830733e-03  1.27943095e+00  3.65319268e-01  7.84496876e-01  0.00000000e+00
 -6.11948459e-03  0.00000000e+00  0.00000000e+00 -2.45406515e-02 -2.13364167e-03
 -2.90879667e-02 -1.02966255e+00  2.51129719e-03 -1.34383798e-03  0.00000000e+00
 -6.15510264e+00 -6.34645095e-02  1.91009430e-01  0.00000000e+00 -1.71001560e-02
  2.41445531e-01  1.94807944e-03  1.72637905e-03  0.00000000e+00  3.52728975e+00
  7.76872601e-02  2.85141628e-02  0.00000000e+00 -4.05762557e-05 -8.45440292e-05
  3.29007995e-02 -2.39592539e-03 -1.96262693e-03  0.00000000e+00  1.28795605e-02
  3.65057712e-02  0.00000000e+00 -3.23993952e-03  0.00000000e+00  0.00000000e+00
  3.94807840e-03 -1.16291118e-03  9.15943226e-02 -1.14885990e+00  3.90376390e-01
  0.00000000e+00  1.75668874e-02  0.00000000e+00  0.00000000e+00 -2.48851558e-02
  4.29805401e-03 -1.27331500e-02  2.54551357e-01 -6.71843985e-03 -5.06893670e-05
  3.31011424e-03 -1.47072637e-01  2.23298604e-01 -6.10602380e-02 -4.94401787e-02
 -1.27331500e-02  2.54551357e-01 -6.71843985e-03 -5.06893670e-05 -3.31011424e-03
 -1.47072637e-01  2.23298604e-01 -6.10602380e-02  4.94401787e-02 -7.66354992e-03
 -4.12736106e-03  1.46446601e-01  8.20538222e-02 -7.82380162e-02  0.00000000e+00
 -1.23583894e-02 -2.16693371e-02  0.00000000e+00  4.08155553e-03  0.00000000e+00
  0.00000000e+00 -2.16597837e-03  4.97321976e-03  1.70359855e+00 -5.33746900e-01
  6.02105696e-01  0.00000000e+00 -2.71017627e-02  0.00000000e+00  0.00000000e+00
 -1.77816751e-03 -2.67439672e-02 -1.91831628e-03 -7.11621450e-01 -9.63324948e-03
  1.40225345e-02  0.00000000e+00 -7.48553254e-01  1.75859035e-01  3.20946313e-01
  0.00000000e+00 -3.23018381e-02 -4.23746830e-01 -1.03642625e-02 -8.18205184e-03
  0.00000000e+00  1.91872476e-02 -1.08179925e-02  8.62639252e-03  0.00000000e+00
  1.47231069e-02  2.56243871e-02 -2.62079389e-01  4.45823256e-03 -2.89554857e-04
  0.00000000e+00 -1.60756147e-01 -5.45677854e-02  0.00000000e+00 -2.94987060e-03
  0.00000000e+00  0.00000000e+00 -1.63083577e-03 -1.72009650e-03 -4.65529623e+00
 -1.30342671e+00  1.81857234e-01  0.00000000e+00 -5.10694690e-03  0.00000000e+00
  0.00000000e+00  7.76068266e-03 -6.77388994e-03  3.98289285e-03  1.52939130e+00
 -1.08784937e-02 -5.43387661e-03  1.45668656e-02  3.27718743e-01 -6.27440180e-02
 -1.90624699e-01  2.60467750e-01  3.98289285e-03  1.52939130e+00 -1.08784937e-02
 -5.43387661e-03 -1.45668656e-02  3.27718743e-01 -6.27440180e-02 -1.90624699e-01
 -2.60467750e-01  1.27527920e-02  8.55210138e-02  8.48942635e-03 -4.46021100e-02
  1.03184888e-01  0.00000000e+00  2.02333377e-02  6.66777726e-03  0.00000000e+00
  2.22039483e-03  0.00000000e+00  0.00000000e+00  3.67135010e-03 -1.08750232e-03
 -1.72525412e+00  1.68358279e-01 -1.94017934e-01  0.00000000e+00  2.55507644e-02
  0.00000000e+00  0.00000000e+00  2.68186747e-02 -2.05035651e-02 -6.01029832e-02
  8.65900263e-01 -5.05496149e-03 -4.57552417e-02  0.00000000e+00  2.22999078e+00
  1.75334749e-01  9.11325145e-02  0.00000000e+00 -3.72887284e-02  5.50352600e-01
  8.31831465e-03  1.18667690e-02  0.00000000e+00 -8.56002404e-01  2.04602541e-01
  1.19051659e-01  0.00000000e+00  8.12806664e-03  1.41504219e-02 -1.62872382e-01
  2.27109220e-03  1.75106329e-03  0.00000000e+00 -6.80448952e-02 -6.45330310e-02
  0.00000000e+00  9.46000693e-04  0.00000000e+00  0.00000000e+00 -7.76640070e-04
  2.75716936e-03 -1.68760390e+00 -1.64718358e-02 -1.38121186e+00  0.00000000e+00
 -2.19594677e-02  0.00000000e+00  0.00000000e+00 -4.13513170e-03 -2.78251735e-02
  1.31332944e-02  5.92481065e-01 -6.88300624e-04 -7.51757368e-03  6.59158427e-03
  8.31803932e-01 -1.52216017e-01  1.06268171e-01  1.46856713e-01  1.31332944e-02
  5.92481065e-01 -6.88300624e-04 -7.51757368e-03 -6.59158427e-03  8.31803932e-01
 -1.52216017e-01  1.06268171e-01 -1.46856713e-01 -2.47973047e-02 -1.01765981e-01
  1.47858857e-01  1.83025090e-01 -2.60629670e-02  0.00000000e+00  1.16164988e-02
  1.58266903e-02  0.00000000e+00  4.21844084e-03  0.00000000e+00  0.00000000e+00
 -2.12662486e-03  6.28861943e-03  2.92659579e+00 -1.23226566e+00  1.18718504e-01
  0.00000000e+00 -4.58367976e-02  0.00000000e+00  0.00000000e+00 -8.22856540e-03
  1.97523274e-03  8.41419515e-03 -1.13499003e+00 -2.90750542e-03  3.71174084e-02
  0.00000000e+00 -1.18424964e+00  7.21259943e-02 -5.33540638e-02  0.00000000e+00
  3.86784477e-02 -1.38981757e+00 -3.45880122e-02 -1.80004792e-02  0.00000000e+00
 -7.19019850e-01 -4.73101805e-01 -1.78864717e-01  0.00000000e+00  0.00000000e+00
  0.00000000e+00  0.00000000e+00  0.00000000e+00  0.00000000e+00  4.21717468e-03
  0.00000000e+00  0.00000000e+00 -2.38566882e-01  0.00000000e+00 -5.56547318e-04
 -2.52411755e-03  0.00000000e+00  0.00000000e+00  0.00000000e+00  0.00000000e+00
  0.00000000e+00 -2.55072069e+00  0.00000000e+00 -5.75274224e-02 -1.99926864e-02
  0.00000000e+00  0.00000000e+00 -2.08744054e-02 -1.64932390e+00  6.01843914e-03
  1.19340787e-02 -2.06026772e-02 -2.59875261e+00  2.72746138e-01  1.45206146e-01
 -1.97812854e-01  2.08744054e-02  1.64932390e+00 -6.01843914e-03 -1.19340787e-02
 -2.06026772e-02  2.59875261e+00 -2.72746138e-01 -1.45206146e-01 -1.97812854e-01
  0.00000000e+00  0.00000000e+00  0.00000000e+00  0.00000000e+00  0.00000000e+00
  1.43051868e-01  0.00000000e+00  0.00000000e+00  1.25081095e-01  0.00000000e+00
 -6.85007503e-03  6.04537345e-03  0.00000000e+00  0.00000000e+00  0.00000000e+00
  0.00000000e+00  0.00000000e+00 -6.84019298e-01  0.00000000e+00  2.15388830e-02
 -3.96336248e-02  0.00000000e+00  0.00000000e+00  0.00000000e+00  0.00000000e+00
  0.00000000e+00  0.00000000e+00 -1.41268273e-02  0.00000000e+00  0.00000000e+00
  0.00000000e+00  2.91255149e-01  0.00000000e+00  0.00000000e+00  0.00000000e+00
  0.00000000e+00 -1.38847965e-03  0.00000000e+00  0.00000000e+00  0.00000000e+00
  6.77237626e-02  0.00000000e+00  0.00000000e+00  0.00000000e+00  0.00000000e+00
  0.00000000e+00  3.34293079e-03  0.00000000e+00  0.00000000e+00 -1.73564629e-01
  0.00000000e+00  7.51343982e-04 -1.98898486e-04  0.00000000e+00  0.00000000e+00
  0.00000000e+00  0.00000000e+00  0.00000000e+00 -1.59418732e+00  0.00000000e+00
 -3.90097669e-02 -2.50709653e-02  0.00000000e+00  0.00000000e+00 -1.60876476e-02
 -1.17222311e+00  6.05017551e-03 -1.63520382e-03 -1.30086450e-02 -8.27073237e-01
  1.80009271e-01  2.02334302e-01 -2.16235464e-01  1.60876476e-02  1.17222311e+00
 -6.05017551e-03  1.63520382e-03 -1.30086450e-02  8.27073237e-01 -1.80009271e-01
 -2.02334302e-01 -2.16235464e-01  0.00000000e+00  0.00000000e+00  0.00000000e+00
  0.00000000e+00  0.00000000e+00 -1.49352151e-01  0.00000000e+00  0.00000000e+00
 -1.67365158e-01  0.00000000e+00  1.21107863e-02 -1.16373293e-02  0.00000000e+00
  0.00000000e+00  0.00000000e+00  0.00000000e+00  0.00000000e+00  1.36213033e+00
  0.00000000e+00 -3.68243672e-02  3.11687885e-02  0.00000000e+00  0.00000000e+00
  0.00000000e+00  0.00000000e+00  0.00000000e+00  0.00000000e+00  1.35487943e-03
  0.00000000e+00  0.00000000e+00  0.00000000e+00 -3.15956939e-01  0.00000000e+00
  0.00000000e+00  0.00000000e+00  0.00000000e+00  9.92525386e-03  0.00000000e+00
  0.00000000e+00  0.00000000e+00 -2.14730836e-01  8.83270335e-04  1.44504700e-03
 -3.17708264e-02  9.25238021e-04  1.70341309e-03  0.00000000e+00 -3.41063703e-02
 -3.95374055e-02  0.00000000e+00  9.31390559e-04  0.00000000e+00  0.00000000e+00
  2.49710228e-03  1.08108282e-03 -7.60237234e-02  5.24295130e-02 -7.75939729e-01
  0.00000000e+00 -1.89066051e-02  0.00000000e+00  0.00000000e+00 -2.46453206e-02
 -1.68540803e-02  8.91945276e-03  1.95551254e-01 -1.27817961e-03 -5.34908341e-03
  7.83189916e-03  2.13605724e-01 -1.91733880e-03  1.15912628e-01 -6.35665840e-03
  8.91945276e-03  1.95551254e-01 -1.27817961e-03 -5.34908341e-03 -7.83189916e-03
  2.13605724e-01 -1.91733880e-03  1.15912628e-01  6.35665840e-03  1.59273916e-02
  1.27432409e-01  4.48248423e-02 -1.02680095e-01 -1.38761289e-01  0.00000000e+00
  1.46667852e-01  9.07992151e-02  0.00000000e+00  5.11484954e-03  0.00000000e+00
  0.00000000e+00  1.41195704e-03  5.16474911e-03 -1.37480548e+00  5.22098030e-01
  1.83698166e+00  0.00000000e+00 -3.92564757e-03  0.00000000e+00  0.00000000e+00
 -4.93599750e-02 -6.61476098e-02 -8.04958303e-02 -1.74806630e+00 -2.67015730e-03
  2.82109495e-02  0.00000000e+00 -2.03065280e+00  3.10854282e-02  6.98313032e-02
  0.00000000e+00 -2.11787690e-02  1.65221865e+00  4.15191017e-02  2.11077368e-02
  0.00000000e+00  2.38345453e+00  8.65860472e-01  2.32657438e-01  0.00000000e+00
  1.02581137e-02  1.79399556e-02 -1.62749202e-01 -1.51214713e-03  2.73662553e-04
  0.00000000e+00 -5.32922749e-03 -3.75387055e-02  0.00000000e+00 -3.44568950e-04
  0.00000000e+00  0.00000000e+00  2.80269470e-03  4.69704421e-03 -1.25096680e-01
 -7.03640941e-01 -2.34196419e+00  0.00000000e+00 -7.82019135e-03  0.00000000e+00
  0.00000000e+00 -2.61548471e-02 -3.82035462e-02  3.17961000e-03  4.70491000e-01
 -6.67665040e-04 -7.56209348e-03  5.29386138e-03  1.06237391e+00 -3.53193570e-02