Generated by Psi4
        SP                           DFT                   AUG-CC-PVDZ
Number of atoms                            I                6
Charge                                     I                0
Multiplicity                               I                1
Number of electrons                        I               10
Number of alpha electrons                  I                5
Number of beta electrons                   I                5
Number of basis functions                  I               82
Number of independent functions            I               82
Atomic numbers                             I   N=           6
           8           1           1           0           0           0
Nuclear charges                            R   N=           6
  8.00000000e+00  1.00000000e+00  1.00000000e+00  0.00000000e+00  0.00000000e+00
  0.00000000e+00
Current cartesian coordinates              R   N=          18
 -1.00647851e-01  2.69065098e+00  0.00000000e+00  8.07220047e-01  3.31106319e+00
 -1.44615639e+00  8.07220047e-01  3.31106319e+00  1.44615639e+00  1.05680007e-01
 -2.82242659e+00  0.00000000e+00 -1.27721957e-01 -1.00729739e+00  0.00000000e+00
 -1.56658211e+00 -3.52345451e+00  0.00000000e+00
Integer atomic weights                     I   N=           6
          15           1           1           0           0           0
Real atomic weights                        R   N=           6
  1.59949146e+01  1.00782503e+00  1.00782503e+00  0.00000000e+00  0.00000000e+00
  0.00000000e+00
Number of primitive shells                 I               78
Number of contracted shells                I               38
Pure/Cartesian d shells                    I                0
Pure/Cartesian f shells                    I                0
Highest angular momentum                   I                2
Largest degree of contraction              I                8
Shell types                                I   N=          38
           0           0           0           1           1          -2
           0           1          -2           0           0           1
           0           1           0           0           1           0
           1           0           0           0           1           1
          -2           0           1          -2           0           0
           1           0           1           0           0           1
           0           1
Number of primitives per shell             I   N=          38
           8           8           1           3           1           1
           1           1           1           3           1           1
           1           1           3           1           1           1
           1           8           8           1           3           1
           1           1           1           1           3           1
           1           1           1           3           1           1
           1           1
Shell to atom map                          I   N=          38
           1           1           1           1           1           1
           1           1           1           2           2           2
           2           2           3           3           3           3
           3           4           4           4           4           4
           4           4           4           4           5           5
           5           5           5           6           6           6
           6           6
Primitive exponents                        R   N=          78
  1.17200000e+04  1.75900000e+03  4.00800000e+02  1.13700000e+02  3.70300000e+01
  1.32700000e+01  5.02500000e+00  1.01300000e+00  1.17200000e+04  1.75900000e+03
  4.00800000e+02  1.13700000e+02  3.70300000e+01  1.32700000e+01  5.02500000e+00
  1.01300000e+00  3.02300000e-01  1.77000000e+01  3.85400000e+00  1.04600000e+00
  2.75300000e-01  1.18500000e+00  7.89600000e-02  6.85600000e-02  3.32000000e-01
  1.30100000e+01  1.96200000e+00  4.44600000e-01  1.22000000e-01  7.27000000e-01
  2.97400000e-02  1.41000000e-01  1.30100000e+01  1.96200000e+00  4.44600000e-01
  1.22000000e-01  7.27000000e-01  2.97400000e-02  1.41000000e-01  1.17200000e+04
  1.75900000e+03  4.00800000e+02  1.13700000e+02  3.70300000e+01  1.32700000e+01
  5.02500000e+00  1.01300000e+00  1.17200000e+04  1.75900000e+03  4.00800000e+02
  1.13700000e+02  3.70300000e+01  1.32700000e+01  5.02500000e+00  1.01300000e+00
  3.02300000e-01  1.77000000e+01  3.85400000e+00  1.04600000e+00  2.75300000e-01
  1.18500000e+00  7.89600000e-02  6.85600000e-02  3.32000000e-01  1.30100000e+01
  1.96200000e+00  4.44600000e-01  1.22000000e-01  7.27000000e-01  2.97400000e-02
  1.41000000e-01  1.30100000e+01  1.96200000e+00  4.44600000e-01  1.22000000e-01
  7.27000000e-01  2.97400000e-02  1.41000000e-01
Contraction coefficients                   R   N=          78
  7.09645947e-04  5.46727229e-03  2.78231186e-02  1.04747740e-01  2.82920846e-01
  4.48495239e-01  2.70816885e-01  1.54502916e-02 -3.14443412e-04 -2.48213768e-03
 -1.23163554e-02 -5.05389173e-02 -1.39384903e-01 -3.25077495e-01 -2.29848308e-01
  1.09537935e+00  1.00000000e+00  6.26791663e-02  3.33536566e-01  7.41239642e-01
  1.00000000e+00  1.00000000e+00  1.00000000e+00  1.00000000e+00  1.00000000e+00
  3.34987264e-02  2.34800801e-01  8.13682958e-01  1.00000000e+00  1.00000000e+00
  1.00000000e+00  1.00000000e+00  3.34987264e-02  2.34800801e-01  8.13682958e-01
  1.00000000e+00  1.00000000e+00  1.00000000e+00  1.00000000e+00  7.09645947e-04
  5.46727229e-03  2.78231186e-02  1.04747740e-01  2.82920846e-01  4.48495239e-01
  2.70816885e-01  1.54502916e-02 -3.14443412e-04 -2.48213768e-03 -1.23163554e-02
 -5.05389173e-02 -1.39384903e-01 -3.25077495e-01 -2.29848308e-01  1.09537935e+00
  1.00000000e+00  6.26791663e-02  3.33536566e-01  7.41239642e-01  1.00000000e+00
  1.00000000e+00  1.00000000e+00  1.00000000e+00  1.00000000e+00  3.34987264e-02
  2.34800801e-01  8.13682958e-01  1.00000000e+00  1.00000000e+00  1.00000000e+00
  1.00000000e+00  3.34987264e-02  2.34800801e-01  8.13682958e-01  1.00000000e+00
  1.00000000e+00  1.00000000e+00  1.00000000e+00
Coordinates of each shell                  R   N=         114
 -1.00647851e-01  2.69065098e+00  0.00000000e+00 -1.00647851e-01  2.69065098e+00
  0.00000000e+00 -1.00647851e-01  2.69065098e+00  0.00000000e+00 -1.00647851e-01
  2.69065098e+00  0.00000000e+00 -1.00647851e-01  2.69065098e+00  0.00000000e+00
 -1.00647851e-01  2.69065098e+00  0.00000000e+00 -1.00647851e-01  2.69065098e+00
  0.00000000e+00 -1.00647851e-01  2.69065098e+00  0.00000000e+00 -1.00647851e-01
  2.69065098e+00  0.00000000e+00  8.07220047e-01  3.31106319e+00 -1.44615639e+00
  8.07220047e-01  3.31106319e+00 -1.44615639e+00  8.07220047e-01  3.31106319e+00
 -1.44615639e+00  8.07220047e-01  3.31106319e+00 -1.44615639e+00  8.07220047e-01
  3.31106319e+00 -1.44615639e+00  8.07220047e-01  3.31106319e+00  1.44615639e+00
  8.07220047e-01  3.31106319e+00  1.44615639e+00  8.07220047e-01  3.31106319e+00
  1.44615639e+00  8.07220047e-01  3.31106319e+00  1.44615639e+00  8.07220047e-01
  3.31106319e+00  1.44615639e+00  1.05680007e-01 -2.82242659e+00  0.00000000e+00
  1.05680007e-01 -2.82242659e+00  0.00000000e+00  1.05680007e-01 -2.82242659e+00
  0.00000000e+00  1.05680007e-01 -2.82242659e+00  0.00000000e+00  1.05680007e-01
 -2.82242659e+00  0.00000000e+00  1.05680007e-01 -2.82242659e+00  0.00000000e+00
  1.05680007e-01 -2.82242659e+00  0.00000000e+00  1.05680007e-01 -2.82242659e+00
  0.00000000e+00  1.05680007e-01 -2.82242659e+00  0.00000000e+00 -1.27721957e-01
 -1.00729739e+00  0.00000000e+00 -1.27721957e-01 -1.00729739e+00  0.00000000e+00
 -1.27721957e-01 -1.00729739e+00  0.00000000e+00 -1.27721957e-01 -1.00729739e+00
  0.00000000e+00 -1.27721957e-01 -1.00729739e+00  0.00000000e+00 -1.56658211e+00
 -3.52345451e+00  0.00000000e+00 -1.56658211e+00 -3.52345451e+00  0.00000000e+00
 -1.56658211e+00 -3.52345451e+00  0.00000000e+00 -1.56658211e+00 -3.52345451e+00
  0.00000000e+00 -1.56658211e+00 -3.52345451e+00  0.00000000e+00
Total Energy                               R     -7.639498362288225e+01
Alpha Orbital Energies                     R   N=          82
 -1.89930997e+01 -1.15050024e+00 -6.63991655e-01 -5.17800575e-01 -4.42960344e-01
  2.90179339e-02  5.34449932e-02  5.65554217e-02  8.31562627e-02  1.51791806e-01
  1.67879151e-01  1.70003062e-01  1.85326772e-01  2.09267881e-01  2.21073749e-01
  2.36142670e-01  2.69651733e-01  2.72367352e-01  3.28858499e-01  3.70512240e-01
  3.89714867e-01  4.05949058e-01  4.50210116e-01  4.59009687e-01  4.73732603e-01
  5.16201223e-01  5.32582748e-01  5.43741893e-01  5.47557068e-01  6.08219991e-01
  6.34290246e-01  6.43957754e-01  7.38081757e-01  7.43775001e-01  8.89065589e-01
  9.30348640e-01  9.47809934e-01  1.07671326e+00  1.08086867e+00  1.13965680e+00
  1.15133246e+00  1.19603758e+00  1.24634669e+00  1.29004301e+00  1.33390968e+00
  1.34129838e+00  1.40654055e+00  1.44516010e+00  1.44866984e+00  1.50831154e+00
  1.68466525e+00  1.85487200e+00  1.97219940e+00  2.04099536e+00  2.15483809e+00
  2.25555933e+00  2.25920417e+00  2.35837733e+00  2.40808477e+00  2.42640976e+00
  2.49606517e+00  2.56924668e+00  2.61701192e+00  2.76805772e+00  2.89475530e+00
  3.42885888e+00  3.44513041e+00  3.48719376e+00  3.56319770e+00  3.78290075e+00
  3.95905164e+00  3.99765752e+00  4.06382065e+00  4.91095946e+00  4.95030595e+00
  5.01247746e+00  5.21035920e+00  5.48983131e+00  5.69907090e+00  6.65501203e+00
  7.11913766e+00  3.35836110e+01
Alpha MO coefficients                      R   N=        6724
  1.00498534e+00  1.14281420e-02 -1.91888157e-02  1.49545839e-03  9.60422806e-04
  0.00000000e+00 -2.48532978e-03 -1.32911834e-03  0.00000000e+00  3.66640402e-04
  0.00000000e+00  0.00000000e+00  3.89779278e-05  2.03880660e-04 -1.19743206e-02
 -1.44440458e-03 -1.08554260e-03  0.00000000e+00 -6.31505452e-04  0.00000000e+00
  0.00000000e+00  3.95246388e-05 -3.62659911e-04  7.68912602e-04  9.22773203e-03
  4.17943717e-04  3.00561217e-04 -5.84156745e-04  1.15422776e-03 -2.22516632e-03
 -1.47962935e-03  2.94682835e-03  7.68912602e-04  9.22773203e-03  4.17943717e-04
  3.00561217e-04  5.84156745e-04  1.15422776e-03 -2.22516632e-03 -1.47962935e-03
 -2.94682835e-03 -1.09416427e-04 -1.92369933e-04  1.24093024e-03 -4.15061518e-05
  2.54072977e-05  0.00000000e+00  2.89127751e-04  5.04920415e-04  0.00000000e+00
 -5.77155494e-05  0.00000000e+00  0.00000000e+00 -9.77936071e-05 -3.63293127e-05
  1.30283892e-03  4.09042689e-04  4.93343884e-04  0.00000000e+00  1.37228336e-04
  0.00000000e+00  0.00000000e+00  1.87967886e-04  1.22718215e-04 -1.36927877e-04
 -2.23363772e-03 -4.72679101e-05  1.19317679e-04  0.00000000e+00 -1.52090250e-03
 -4.68498836e-04  2.03007487e-03  0.00000000e+00 -1.86010152e-05  1.40677379e-03
  2.06178460e-05  1.70641831e-05  0.00000000e+00  5.06602529e-04  3.84555754e-04
  3.17712009e-04  0.00000000e+00  7.73447866e-03 -4.38694738e-01 -3.51449218e-01
 -9.02400029e-02 -6.26946517e-02  0.00000000e+00  9.01589640e-03  1.26846591e-02
  0.00000000e+00 -5.55287187e-03  0.00000000e+00  0.00000000e+00 -3.17389991e-03
 -6.46534498e-03 -9.75334760e-02 -1.78371599e-02 -1.57787059e-03  0.00000000e+00
  1.62002509e-02  0.00000000e+00  0.00000000e+00  7.88852553e-03  1.21328180e-02
 -2.17467933e-01  2.97794188e-02  1.67925385e-02  1.15473491e-02 -3.60370592e-02
  5.32494113e-03 -3.99200430e-03 -4.10935225e-03  2.74580526e-03 -2.17467933e-01
  2.97794188e-02  1.67925385e-02  1.15473491e-02  3.60370592e-02  5.32494113e-03
 -3.99200430e-03 -4.10935225e-03 -2.74580526e-03 -4.11969152e-04 -6.99984200e-04
  1.07891664e-02 -1.92059044e-04  4.50672519e-04  0.00000000e+00  1.58970420e-03
  5.20942825e-03  0.00000000e+00 -5.20612975e-04  0.00000000e+00  0.00000000e+00
 -7.98909839e-04 -2.76439569e-04  9.61576206e-03  6.91422822e-03  7.54954765e-03
  0.00000000e+00  1.12350436e-03  0.00000000e+00  0.00000000e+00  1.16717877e-03
  1.34184922e-04 -8.29384613e-04 -1.54569020e-02 -1.25973262e-04  3.69596766e-03
  0.00000000e+00 -1.07392308e-02 -9.77160013e-04  2.67756705e-02  0.00000000e+00
 -1.91972366e-05  2.09697525e-02  1.78909038e-04  5.98353990e-05  0.00000000e+00
  5.50161022e-03  5.18726466e-03  3.49220207e-03  0.00000000e+00  0.00000000e+00
  0.00000000e+00  0.00000000e+00  0.00000000e+00  0.00000000e+00  5.16051622e-01
  0.00000000e+00  0.00000000e+00  1.49345515e-01  0.00000000e+00  2.04044412e-02
  1.39849040e-02  0.00000000e+00  0.00000000e+00  0.00000000e+00  0.00000000e+00
  0.00000000e+00  1.51550729e-02  0.00000000e+00 -3.28646531e-02 -2.26294712e-02
  0.00000000e+00  0.00000000e+00 -3.62049149e-01 -1.24317042e-01  2.65487738e-02
  1.80266140e-02 -2.21580158e-02 -7.77856816e-04  8.58971692e-03  6.33095984e-03
 -1.92385154e-02  3.62049149e-01  1.24317042e-01 -2.65487738e-02 -1.80266140e-02
 -2.21580158e-02  7.77856816e-04 -8.58971692e-03 -6.33095984e-03 -1.92385154e-02
  0.00000000e+00  0.00000000e+00  0.00000000e+00  0.00000000e+00  0.00000000e+00
 -4.11001335e-05  0.00000000e+00  0.00000000e+00  8.24940254e-04  0.00000000e+00
  7.66876095e-06  3.48877572e-05  0.00000000e+00  0.00000000e+00  0.00000000e+00
  0.00000000e+00  0.00000000e+00 -2.60220756e-04  0.00000000e+00 -1.55193264e-04
  3.86578716e-04  0.00000000e+00  0.00000000e+00  0.00000000e+00  0.00000000e+00
  0.00000000e+00  0.00000000e+00 -6.52324702e-04  0.00000000e+00  0.00000000e+00
  0.00000000e+00 -1.49371758e-03  0.00000000e+00  0.00000000e+00  0.00000000e+00
  0.00000000e+00 -5.42459570e-05  0.00000000e+00  0.00000000e+00  0.00000000e+00
 -1.50620343e-05  2.37888315e-03 -1.64282897e-01 -3.30243841e-01  4.59371173e-01
  3.14193408e-01  0.00000000e+00  2.49023844e-01  1.67329458e-01  0.00000000e+00
 -6.39935965e-03  0.00000000e+00  0.00000000e+00  5.26320930e-03  1.29032069e-02
 -8.55653946e-02  4.69835707e-02  2.97606750e-02  0.00000000e+00 -2.17165713e-02
  0.00000000e+00  0.00000000e+00  1.64946331e-03  7.83461441e-03  2.05915792e-01
  5.94849690e-02  3.78966553e-03  2.64438187e-03  2.64322521e-02  7.21066016e-04
  1.30056745e-02  8.84502857e-03  4.26412806e-03  2.05915792e-01  5.94849690e-02
  3.78966553e-03  2.64438187e-03 -2.64322521e-02  7.21066016e-04  1.30056745e-02
  8.84502857e-03 -4.26412806e-03  4.12140213e-05  7.93413242e-05  6.51786511e-04
 -2.23950381e-05  2.01082700e-04  0.00000000e+00 -6.13832653e-04 -1.84494246e-04
  0.00000000e+00 -4.53702694e-05  0.00000000e+00  0.00000000e+00 -1.54987386e-04
 -2.60655586e-05  8.60869880e-03 -7.38697049e-03  1.68081159e-03  0.00000000e+00
 -2.74050918e-04  0.00000000e+00  0.00000000e+00  3.16184732e-04  3.11809540e-04
 -2.16990162e-04 -1.18942949e-02 -2.65702128e-04  9.58026342e-04  0.00000000e+00
  1.48543655e-02  9.02270016e-04 -7.75071284e-03  0.00000000e+00 -1.99411372e-04
 -8.55516544e-03 -2.08903409e-04  5.94620305e-05  0.00000000e+00 -6.76211934e-03
 -9.12582391e-04  3.41027663e-04  0.00000000e+00 -2.35406473e-04 -4.00270397e-04
  3.88746486e-03 -3.57735509e-01  5.23209455e-01  0.00000000e+00 -2.37666560e-01
  3.53153865e-01  0.00000000e+00 -1.49481826e-04  0.00000000e+00  0.00000000e+00
 -1.40531406e-02  5.32080491e-03 -3.70532927e-03 -4.85471950e-02  8.38486024e-02
  0.00000000e+00  1.20367118e-03  0.00000000e+00  0.00000000e+00 -1.68452883e-02
  7.71875024e-03 -9.11751735e-04 -3.52828413e-03 -1.57331999e-02  2.33435303e-02
 -2.42333889e-04 -5.49370158e-03 -1.24314225e-02  2.00340741e-02 -1.96271626e-03
 -9.11751735e-04 -3.52828413e-03 -1.57331999e-02  2.33435303e-02  2.42333889e-04
 -5.49370158e-03 -1.24314225e-02  2.00340741e-02  1.96271626e-03 -1.75595526e-04
 -2.84060752e-04  9.90622665e-03 -8.40534929e-05  5.13148931e-04  0.00000000e+00
 -4.97496991e-04  3.08170352e-03  0.00000000e+00 -4.37267561e-04  0.00000000e+00
  0.00000000e+00 -6.55311089e-04 -6.21679666e-05  1.84305855e-02 -6.75980134e-06
  8.72541186e-03  0.00000000e+00  9.93878811e-04  0.00000000e+00  0.00000000e+00
  1.97334650e-03 -1.26866763e-03 -4.82549890e-05 -2.44522619e-02  4.81279333e-04
  4.04935868e-03  0.00000000e+00  1.26980072e-02  1.22268728e-03  2.08606125e-02
  0.00000000e+00 -1.80113788e-04  1.22615105e-02 -3.57653400e-05 -4.19283090e-04
  0.00000000e+00 -4.90427658e-03  4.23954783e-03  3.47377317e-03  0.00000000e+00
 -8.54936469e-04  7.18223764e-02  2.30043887e-01  6.34076946e-02  4.59041587e-02
  0.00000000e+00  1.00448647e-01  5.79279805e-02  0.00000000e+00 -1.01866890e-03
  0.00000000e+00  0.00000000e+00  1.97969082e-03  1.28728979e-03  1.39973421e+00
  1.82074223e-01  2.21986457e-01  0.00000000e+00  2.22314880e-03  0.00000000e+00
  0.00000000e+00 -6.08369477e-03  6.87010986e-03 -2.84491524e-02 -4.71141122e-01
 -3.83342918e-03 -1.79027813e-03  7.64362729e-03 -8.85713110e-01  5.18148228e-02
  1.32532062e-02 -7.07082143e-02 -2.84491524e-02 -4.71141122e-01 -3.83342918e-03
 -1.79027813e-03 -7.64362729e-03 -8.85713110e-01  5.18148228e-02  1.32532062e-02
  7.07082143e-02 -1.73554982e-03 -3.01797699e-03  2.88730807e-02  5.64472614e-04
  2.40772751e-04  0.00000000e+00 -2.32491386e-02 -1.78959114e-03  0.00000000e+00
  4.55609865e-04  0.00000000e+00  0.00000000e+00 -2.06641242e-04  4.89754038e-04
  4.14613032e-01 -1.84674218e-01  3.05291455e-02  0.00000000e+00 -6.88230118e-03
  0.00000000e+00  0.00000000e+00  1.68952248e-03 -1.51927196e-03 -2.70191486e-04
 -1.25495080e-01  1.01775919e-04  2.65298248e-03  0.00000000e+00  6.65090100e-01
  1.14694310e-02 -3.30996131e-02  0.00000000e+00 -2.92663555e-03 -2.39692669e-01
 -2.22001561e-03 -1.42503249e-03  0.00000000e+00 -6.94283971e-01 -5.38074411e-02
 -3.11986458e-02  0.00000000e+00  1.43376033e-03 -1.12706230e-02 -6.31175712e-02
 -3.18106845e-02 -5.62619153e-02  0.00000000e+00 -4.05195345e-02 -4.73706056e-02
  0.00000000e+00  8.65449284e-04  0.00000000e+00  0.00000000e+00 -4.33808565e-04
 -5.43205724e-04 -5.52263549e-01 -9.43071327e-02 -2.30878059e-01  0.00000000e+00
  2.59302998e-03  0.00000000e+00  0.00000000e+00  4.85718415e-03 -6.65286086e-03
  5.55550517e-03  1.78266613e-01  2.35883887e-03  1.93406629e-04 -4.58199142e-03
  5.78449672e-01 -2.16307382e-02  1.15161583e-02  3.82331184e-02  5.55550517e-03
  1.78266613e-01  2.35883887e-03  1.93406629e-04  4.58199142e-03  5.78449672e-01
 -2.16307382e-02  1.15161583e-02 -3.82331184e-02 -6.72433489e-03 -1.17321105e-02
  1.19034119e-01  1.86826476e-03 -8.65405189e-05  0.00000000e+00 -6.51852192e-02
  4.21622881e-03  0.00000000e+00  1.93132791e-04  0.00000000e+00  0.00000000e+00
 -2.27911423e-04 -1.10419299e-04  1.31417513e+00 -4.05529722e-01 -1.19341775e-01
  0.00000000e+00 -1.08985490e-02  0.00000000e+00  0.00000000e+00  2.43361346e-03
  6.38457524e-03 -2.11583090e-03 -2.41656660e-01 -1.80913075e-03  4.63551874e-03
  0.00000000e+00 -2.45268361e-01  1.49548012e-02  5.75166780e-02  0.00000000e+00
 -9.30579672e-03 -6.22888845e-01 -4.61668621e-03 -3.57420445e-03  0.00000000e+00
 -1.61535671e+00 -1.93031763e-01 -5.78169673e-02  0.00000000e+00  0.00000000e+00
  0.00000000e+00  0.00000000e+00  0.00000000e+00  0.00000000e+00  8.73094900e-02
  0.00000000e+00  0.00000000e+00  1.40250684e-01  0.00000000e+00  6.04781195e-04
  8.68727587e-04  0.00000000e+00  0.00000000e+00  0.00000000e+00  0.00000000e+00
  0.00000000e+00  8.53349238e-01  0.00000000e+00  1.37791575e-02  6.30769284e-03
  0.00000000e+00  0.00000000e+00  4.35418087e-03  5.47377148e-01  5.04585404e-03
  2.09669887e-03 -1.60654571e-03  2.92738396e+00 -1.02706625e-01 -6.40724528e-02
  7.83988135e-02 -4.35418087e-03 -5.47377148e-01 -5.04585404e-03 -2.09669887e-03
 -1.60654571e-03 -2.92738396e+00  1.02706625e-01  6.40724528e-02  7.83988135e-02
  0.00000000e+00  0.00000000e+00  0.00000000e+00  0.00000000e+00  0.00000000e+00
 -4.79106065e-04  0.00000000e+00  0.00000000e+00  8.13281823e-03  0.00000000e+00
 -5.57443217e-05 -4.29195137e-04  0.00000000e+00  0.00000000e+00  0.00000000e+00
  0.00000000e+00  0.00000000e+00  2.16111393e-02  0.00000000e+00  1.83112711e-04
  3.05245484e-03  0.00000000e+00  0.00000000e+00  0.00000000e+00  0.00000000e+00
  0.00000000e+00  0.00000000e+00  5.18540513e-04  0.00000000e+00  0.00000000e+00
  0.00000000e+00 -3.99987090e-02  0.00000000e+00  0.00000000e+00  0.00000000e+00
  0.00000000e+00  2.22920728e-04  0.00000000e+00  0.00000000e+00  0.00000000e+00
 -4.22130119e-04  5.59092108e-03  3.23253770e-02  2.15192057e-03  2.76964313e-02
 -5.27532930e-02  0.00000000e+00  2.61619766e-02 -2.58107818e-02  0.00000000e+00
 -8.73328463e-04  0.00000000e+00  0.00000000e+00  2.49966696e-03  1.84606624e-03
  4.89885006e-02 -2.61539431e-01 -5.12802975e-01  0.00000000e+00  2.71855883e-03
  0.00000000e+00  0.00000000e+00 -8.90755278e-03 -1.13654274e-02 -1.09439731e-02
  1.06802450e-01 -3.81190205e-04 -1.29995394e-03  3.83674645e-03  1.15804430e+00
  2.30564845e-02  4.75980609e-02  2.18517661e-02 -1.09439731e-02  1.06802450e-01
 -3.81190205e-04 -1.29995394e-03 -3.83674645e-03  1.15804430e+00  2.30564845e-02
  4.75980609e-02 -2.18517661e-02 -2.70490728e-03 -4.66154066e-03  5.49138766e-02
  5.00070074e-04 -2.66168933e-03  0.00000000e+00 -6.35721744e-03  1.11098307e-01
  0.00000000e+00  2.82781091e-04  0.00000000e+00  0.00000000e+00  4.99517660e-04
  4.00357319e-04  1.30587968e+00  1.83899026e-01  8.88096213e-01  0.00000000e+00
 -1.41467939e-02  0.00000000e+00  0.00000000e+00 -2.45966950e-02 -1.00090156e-02
 -1.38388880e-02 -1.14818548e+00 -5.49771344e-04  1.34178258e-02  0.00000000e+00
 -6.26036720e+00 -1.33795827e-02  2.37071147e-01  0.00000000e+00  5.05134765e-03
  2.36279427e-01 -7.42501731e-04 -9.98421574e-04  0.00000000e+00  3.77534707e+00
  1.22063170e-01  5.41600108e-02  0.00000000e+00  1.16417110e-02  5.17234755e-03
 -2.13973349e-01  1.35718014e-01  9.33487077e-03  0.00000000e+00 -1.30742955e-02
 -2.64161011e-02  0.00000000e+00 -3.56411472e-03  0.00000000e+00  0.00000000e+00
  4.01487868e-03 -1.12706597e-03 -3.29208594e+00 -1.38547830e+00  4.81861703e-01
  0.00000000e+00 -9.20738488e-03  0.00000000e+00  0.00000000e+00 -1.16603930e-02
  5.66213017e-03  1.20453817e-02  1.31888888e+00 -1.67007596e-02 -8.42793844e-03
  1.99108532e-02 -1.18777328e-01  4.89801097e-02 -2.02760282e-01  1.27148141e-01
  1.20453817e-02  1.31888888e+00 -1.67007596e-02 -8.42793844e-03 -1.99108532e-02
 -1.18777328e-01  4.89801097e-02 -2.02760282e-01 -1.27148141e-01 -1.28760708e-03
 -2.29539836e-03  6.28996123e-03 -9.48321708e-04  8.85629147e-04  0.00000000e+00
 -7.11307005e-03 -2.28795052e-02  0.00000000e+00  3.48435768e-03  0.00000000e+00
  0.00000000e+00 -6.67007396e-04  7.82135972e-03 -2.03924417e-01 -7.44455263e-01
  6.26799082e-01  0.00000000e+00 -1.76860572e-02  0.00000000e+00  0.00000000e+00
  1.86373413e-02 -4.95235083e-02  2.50830967e-03  6.51546930e-02 -3.85448957e-03
 -7.65291884e-03  0.00000000e+00  2.11557708e+00  3.27377041e-01  2.26961804e-01
  0.00000000e+00  6.48845313e-03  3.04023380e-04 -4.40968282e-03 -2.53058498e-03
  0.00000000e+00 -9.81516250e-01  1.70983709e-01 -3.78830360e-02  0.00000000e+00
  3.03168615e-02  1.68909983e-01 -7.59637576e-02  1.29033920e-01  3.24867146e-02
  0.00000000e+00 -5.03309651e-02 -2.23137730e-02  0.00000000e+00 -4.64335196e-03
  0.00000000e+00  0.00000000e+00 -1.30242388e-03  7.85423660e-05 -3.82095555e+00
 -8.82351421e-01 -2.54922450e-01  0.00000000e+00 -1.52791749e-02  0.00000000e+00
  0.00000000e+00  2.01727769e-02 -1.86149794e-02 -6.09037101e-02  1.18700568e+00
 -1.64679358e-02 -1.15804527e-02  2.90347186e-02  7.03466530e-01 -1.93652658e-01
 -1.85100347e-01  3.51344517e-01 -6.09037101e-02  1.18700568e+00 -1.64679358e-02
 -1.15804527e-02 -2.90347186e-02  7.03466530e-01 -1.93652658e-01 -1.85100347e-01
 -3.51344517e-01  1.18776767e-02  2.06472734e-02 -1.89805061e-01 -1.07805225e-03
 -7.89752271e-05  0.00000000e+00  9.37746274e-02 -6.00930678e-02  0.00000000e+00
 -1.80691696e-03  0.00000000e+00  0.00000000e+00  2.03203546e-03 -1.99035534e-03
 -2.71875161e+00  1.09270066e+00 -6.10692901e-01  0.00000000e+00  4.27615579e-02
  0.00000000e+00  0.00000000e+00  4.09685277e-03  9.82192221e-03  2.98303266e-03
  1.35181246e+00  1.98274153e-04 -2.65877478e-02  0.00000000e+00  3.59461367e-01
  2.15486352e-03  9.97265845e-02  0.00000000e+00  4.47724563e-03  1.22611813e+00
  1.25620080e-02  7.22782784e-03  0.00000000e+00  2.35490228e-01  1.76244896e-01
  1.65904729e-01  0.00000000e+00  0.00000000e+00  0.00000000e+00  0.00000000e+00
  0.00000000e+00  0.00000000e+00  5.22842810e-03  0.00000000e+00  0.00000000e+00
  4.59280996e-02  0.00000000e+00 -1.74137515e-03 -2.66944659e-03  0.00000000e+00
  0.00000000e+00  0.00000000e+00  0.00000000e+00  0.00000000e+00  5.31225132e-01
  0.00000000e+00  1.12702979e-02 -7.96111784e-03  0.00000000e+00  0.00000000e+00
  3.38367584e-02  3.12979082e-01  7.76621367e-04 -3.72892781e-03  4.05834881e-03
  1.06473202e+00 -3.57849396e-02  6.61544094e-02 -1.48114843e-02 -3.38367584e-02
 -3.12979082e-01 -7.76621367e-04  3.72892781e-03  4.05834881e-03 -1.06473202e+00
  3.57849396e-02 -6.61544094e-02 -1.48114843e-02  0.00000000e+00  0.00000000e+00
  0.00000000e+00  0.00000000e+00  0.00000000e+00  2.88225337e-03  0.00000000e+00
  0.00000000e+00 -1.29570702e-02  0.00000000e+00  6.75119427e-03 -6.65517337e-03
  0.00000000e+00  0.00000000e+00  0.00000000e+00  0.00000000e+00  0.00000000e+00
  1.38559954e+00  0.00000000e+00 -4.08153101e-02  4.23114193e-02  0.00000000e+00
  0.00000000e+00  0.00000000e+00  0.00000000e+00  0.00000000e+00  0.00000000e+00
  1.09473040e-02  0.00000000e+00  0.00000000e+00  0.00000000e+00 -3.64838269e-01
  0.00000000e+00  0.00000000e+00  0.00000000e+00  0.00000000e+00  7.96037953e-03
  0.00000000e+00  0.00000000e+00  0.00000000e+00 -2.15113876e-01  1.38705174e-02
  5.75168648e-02 -7.66992497e-02  1.08209706e-01  3.96534217e-02  0.00000000e+00
  5.36882272e-02  4.35235496e-02  0.00000000e+00 -5.47869962e-03  0.00000000e+00
  0.00000000e+00 -1.81299123e-03  2.65150353e-03 -1.60420825e+00 -6.40076249e-01
 -1.17557537e-01  0.00000000e+00  7.17143130e-04  0.00000000e+00  0.00000000e+00
  5.93454016e-03 -6.26428437e-03 -3.40892909e-02  5.27506668e-01 -8.95133869e-03
 -2.12307520e-03  1.34204456e-02  5.69394305e-01 -5.58323673e-02 -8.66185408e-02
  1.57832588e-01 -3.40892909e-02  5.27506668e-01 -8.95133869e-03 -2.12307520e-03
 -1.34204456e-02  5.69394305e-01 -5.58323673e-02 -8.66185408e-02 -1.57832588e-01
 -1.26929847e-02 -2.20884851e-02  2.73323221e-01  7.02259836e-03 -1.01138243e-03
  0.00000000e+00 -2.23660432e-01 -2.71285502e-02  0.00000000e+00 -6.55050445e-04
  0.00000000e+00  0.00000000e+00  1.28692146e-03 -5.82772512e-04  3.78585242e+00
 -8.72845763e-01 -7.22104324e-01  0.00000000e+00 -1.89346278e-02  0.00000000e+00
  0.00000000e+00  2.10665417e-02  3.15467206e-02 -8.10290081e-03 -1.83521708e-01
 -3.18856534e-03 -2.67721704e-03  0.00000000e+00 -6.10217329e-01  8.17792810e-02
  2.85618989e-01  0.00000000e+00 -3.28504838e-02 -1.80913278e+00 -2.00427036e-02
 -1.31083806e-02  0.00000000e+00 -1.39577444e+00 -5.44024787e-01 -9.77089582e-02
  0.00000000e+00  1.74979355e-02  1.10586839e-01 -3.51763645e-02 -3.21072071e-02
  1.72293596e-01  0.00000000e+00 -1.30927119e-01  9.55957827e-03  0.00000000e+00
  3.19227240e-03  0.00000000e+00  0.00000000e+00 -3.11408948e-03  7.28938462e-03
 -9.45033489e-01  6.92331271e-01 -1.88652356e+00  0.00000000e+00 -4.59191733e-02
  0.00000000e+00  0.00000000e+00 -1.18479025e-02 -3.01337768e-02 -9.45888183e-03
  2.27464542e-01 -1.03148130e-03 -1.33978236e-02  1.77765254e-02  7.88455267e-01
 -3.11298985e-01  1.59798825e-01  2.38916171e-01 -9.45888183e-03  2.27464542e-01
 -1.03148130e-03 -1.33978236e-02 -1.77765254e-02  7.88455267e-01 -3.11298985e-01
  1.59798825e-01 -2.38916171e-01 -3.23508356e-03 -5.59176458e-03  4.45374640e-03
 -1.86052252e-03  1.46043713e-03  0.00000000e+00  9.41052447e-03  3.01605902e-02
  0.00000000e+00  9.80418933e-04  0.00000000e+00  0.00000000e+00 -2.56502121e-03
 -1.49742651e-05  3.51313399e-01 -7.49854953e-01 -6.71348890e-02  0.00000000e+00
 -2.58589769e-02  0.00000000e+00  0.00000000e+00 -1.90660705e-02 -9.31889088e-03
  1.02430002e-02 -6.83330132e-01 -3.57932548e-03  2.99763846e-02  0.00000000e+00
 -8.55696651e-01 -2.55107649e-02 -5.42693515e-01  0.00000000e+00  8.99490018e-03
 -5.95752901e-01  1.36023034e-03 -1.15724275e-03  0.00000000e+00 -2.60968007e-02
 -8.91733805e-02 -1.25791860e-01  0.00000000e+00  0.00000000e+00  0.00000000e+00
  0.00000000e+00  0.00000000e+00  0.00000000e+00  2.69077618e-01  0.00000000e+00
  0.00000000e+00 -1.55520070e-01  0.00000000e+00  2.77333664e-03 -1.54522223e-03
  0.00000000e+00  0.00000000e+00  0.00000000e+00  0.00000000e+00  0.00000000e+00
 -2.81324161e+00  0.00000000e+00 -7.21458239e-02 -3.73968391e-02  0.00000000e+00
  0.00000000e+00 -1.10580471e-02 -2.10487970e+00  1.89755536e-02  1.75511689e-02
 -3.95990589e-02 -2.57313796e+00  4.78470110e-01  3.49275198e-01 -5.51993841e-01
  1.10580471e-02  2.10487970e+00 -1.89755536e-02 -1.75511689e-02 -3.95990589e-02
  2.57313796e+00 -4.78470110e-01 -3.49275198e-01 -5.51993841e-01  0.00000000e+00
  0.00000000e+00  0.00000000e+00  0.00000000e+00  0.00000000e+00  1.88678810e-03
  0.00000000e+00  0.00000000e+00 -2.93726592e-02  0.00000000e+00  1.68560687e-03
  9.77920347e-04  0.00000000e+00  0.00000000e+00  0.00000000e+00  0.00000000e+00
  0.00000000e+00  2.30933107e-01  0.00000000e+00 -9.96513164e-03 -7.37790248e-03
  0.00000000e+00  0.00000000e+00  0.00000000e+00  0.00000000e+00  0.00000000e+00
  0.00000000e+00 -1.27622236e-03  0.00000000e+00  0.00000000e+00  0.00000000e+00
  1.17335927e-01  0.00000000e+00  0.00000000e+00  0.00000000e+00  0.00000000e+00
  2.54128432e-03  0.00000000e+00  0.00000000e+00  0.00000000e+00 -8.07921812e-02
  7.82579019e-03  3.06261869e-02 -5.05626496e-02  4.85377435e-02  8.92958007e-02
  0.00000000e+00  2.71020268e-02  1.51856146e-01  0.00000000e+00 -7.57559744e-03
  0.00000000e+00  0.00000000e+00 -3.26727960e-03 -5.93509081e-05 -8.62169209e-01
 -2.98271687e-01  6.61674750e-01  0.00000000e+00  5.27855525e-04  0.00000000e+00
  0.00000000e+00 -2.60527967e-03 -1.00587788e-02 -5.67698347e-02  3.09662537e-02
 -4.02001822e-03  3.29107542e-03  7.26226783e-03  4.44095541e-01 -3.36093602e-03