Generated by Psi4
        SP                           DFT                   AUG-CC-PVDZ
Number of atoms                            I                6
Charge                                     I                0
Multiplicity                               I                1
Number of electrons                        I               20
Number of alpha electrons                  I               10
Number of beta electrons                   I               10
Number of basis functions                  I               82
Number of independent functions            I               82
Atomic numbers                             I   N=           6
           8           1           1           8           1           1
Nuclear charges                            R   N=           6
  8.00000000e+00  1.00000000e+00  1.00000000e+00  8.00000000e+00  1.00000000e+00
  1.00000000e+00
Current cartesian coordinates              R   N=          18
 -1.00647851e-01  2.69065098e+00  0.00000000e+00  8.07220047e-01  3.31106319e+00
 -1.44615639e+00  8.07220047e-01  3.31106319e+00  1.44615639e+00  1.05680007e-01
 -2.82242659e+00  0.00000000e+00 -1.27721957e-01 -1.00729739e+00  0.00000000e+00
 -1.56658211e+00 -3.52345451e+00  0.00000000e+00
Integer atomic weights                     I   N=           6
          15           1           1          15           1           1
Real atomic weights                        R   N=           6
  1.59949146e+01  1.00782503e+00  1.00782503e+00  1.59949146e+01  1.00782503e+00
  1.00782503e+00
Number of primitive shells                 I               78
Number of contracted shells                I               38
Pure/Cartesian d shells                    I                0
Pure/Cartesian f shells                    I                0
Highest angular momentum                   I                2
Largest degree of contraction              I                8
Shell types                                I   N=          38
           0           0           0           1           1          -2
           0           1          -2           0           0           1
           0           1           0           0           1           0
           1           0           0           0           1           1
          -2           0           1          -2           0           0
           1           0           1           0           0           1
           0           1
Number of primitives per shell             I   N=          38
           8           8           1           3           1           1
           1           1           1           3           1           1
           1           1           3           1           1           1
           1           8           8           1           3           1
           1           1           1           1           3           1
           1           1           1           3           1           1
           1           1
Shell to atom map                          I   N=          38
           1           1           1           1           1           1
           1           1           1           2           2           2
           2           2           3           3           3           3
           3           4           4           4           4           4
           4           4           4           4           5           5
           5           5           5           6           6           6
           6           6
Primitive exponents                        R   N=          78
  1.17200000e+04  1.75900000e+03  4.00800000e+02  1.13700000e+02  3.70300000e+01
  1.32700000e+01  5.02500000e+00  1.01300000e+00  1.17200000e+04  1.75900000e+03
  4.00800000e+02  1.13700000e+02  3.70300000e+01  1.32700000e+01  5.02500000e+00
  1.01300000e+00  3.02300000e-01  1.77000000e+01  3.85400000e+00  1.04600000e+00
  2.75300000e-01  1.18500000e+00  7.89600000e-02  6.85600000e-02  3.32000000e-01
  1.30100000e+01  1.96200000e+00  4.44600000e-01  1.22000000e-01  7.27000000e-01
  2.97400000e-02  1.41000000e-01  1.30100000e+01  1.96200000e+00  4.44600000e-01
  1.22000000e-01  7.27000000e-01  2.97400000e-02  1.41000000e-01  1.17200000e+04
  1.75900000e+03  4.00800000e+02  1.13700000e+02  3.70300000e+01  1.32700000e+01
  5.02500000e+00  1.01300000e+00  1.17200000e+04  1.75900000e+03  4.00800000e+02
  1.13700000e+02  3.70300000e+01  1.32700000e+01  5.02500000e+00  1.01300000e+00
  3.02300000e-01  1.77000000e+01  3.85400000e+00  1.04600000e+00  2.75300000e-01
  1.18500000e+00  7.89600000e-02  6.85600000e-02  3.32000000e-01  1.30100000e+01
  1.96200000e+00  4.44600000e-01  1.22000000e-01  7.27000000e-01  2.97400000e-02
  1.41000000e-01  1.30100000e+01  1.96200000e+00  4.44600000e-01  1.22000000e-01
  7.27000000e-01  2.97400000e-02  1.41000000e-01
Contraction coefficients                   R   N=          78
  7.09645947e-04  5.46727229e-03  2.78231186e-02  1.04747740e-01  2.82920846e-01
  4.48495239e-01  2.70816885e-01  1.54502916e-02 -3.14443412e-04 -2.48213768e-03
 -1.23163554e-02 -5.05389173e-02 -1.39384903e-01 -3.25077495e-01 -2.29848308e-01
  1.09537935e+00  1.00000000e+00  6.26791663e-02  3.33536566e-01  7.41239642e-01
  1.00000000e+00  1.00000000e+00  1.00000000e+00  1.00000000e+00  1.00000000e+00
  3.34987264e-02  2.34800801e-01  8.13682958e-01  1.00000000e+00  1.00000000e+00
  1.00000000e+00  1.00000000e+00  3.34987264e-02  2.34800801e-01  8.13682958e-01
  1.00000000e+00  1.00000000e+00  1.00000000e+00  1.00000000e+00  7.09645947e-04
  5.46727229e-03  2.78231186e-02  1.04747740e-01  2.82920846e-01  4.48495239e-01
  2.70816885e-01  1.54502916e-02 -3.14443412e-04 -2.48213768e-03 -1.23163554e-02
 -5.05389173e-02 -1.39384903e-01 -3.25077495e-01 -2.29848308e-01  1.09537935e+00
  1.00000000e+00  6.26791663e-02  3.33536566e-01  7.41239642e-01  1.00000000e+00
  1.00000000e+00  1.00000000e+00  1.00000000e+00  1.00000000e+00  3.34987264e-02
  2.34800801e-01  8.13682958e-01  1.00000000e+00  1.00000000e+00  1.00000000e+00
  1.00000000e+00  3.34987264e-02  2.34800801e-01  8.13682958e-01  1.00000000e+00
  1.00000000e+00  1.00000000e+00  1.00000000e+00
Coordinates of each shell                  R   N=         114
 -1.00647851e-01  2.69065098e+00  0.00000000e+00 -1.00647851e-01  2.69065098e+00
  0.00000000e+00 -1.00647851e-01  2.69065098e+00  0.00000000e+00 -1.00647851e-01
  2.69065098e+00  0.00000000e+00 -1.00647851e-01  2.69065098e+00  0.00000000e+00
 -1.00647851e-01  2.69065098e+00  0.00000000e+00 -1.00647851e-01  2.69065098e+00
  0.00000000e+00 -1.00647851e-01  2.69065098e+00  0.00000000e+00 -1.00647851e-01
  2.69065098e+00  0.00000000e+00  8.07220047e-01  3.31106319e+00 -1.44615639e+00
  8.07220047e-01  3.31106319e+00 -1.44615639e+00  8.07220047e-01  3.31106319e+00
 -1.44615639e+00  8.07220047e-01  3.31106319e+00 -1.44615639e+00  8.07220047e-01
  3.31106319e+00 -1.44615639e+00  8.07220047e-01  3.31106319e+00  1.44615639e+00
  8.07220047e-01  3.31106319e+00  1.44615639e+00  8.07220047e-01  3.31106319e+00
  1.44615639e+00  8.07220047e-01  3.31106319e+00  1.44615639e+00  8.07220047e-01
  3.31106319e+00  1.44615639e+00  1.05680007e-01 -2.82242659e+00  0.00000000e+00
  1.05680007e-01 -2.82242659e+00  0.00000000e+00  1.05680007e-01 -2.82242659e+00
  0.00000000e+00  1.05680007e-01 -2.82242659e+00  0.00000000e+00  1.05680007e-01
 -2.82242659e+00  0.00000000e+00  1.05680007e-01 -2.82242659e+00  0.00000000e+00
  1.05680007e-01 -2.82242659e+00  0.00000000e+00  1.05680007e-01 -2.82242659e+00
  0.00000000e+00  1.05680007e-01 -2.82242659e+00  0.00000000e+00 -1.27721957e-01
 -1.00729739e+00  0.00000000e+00 -1.27721957e-01 -1.00729739e+00  0.00000000e+00
 -1.27721957e-01 -1.00729739e+00  0.00000000e+00 -1.27721957e-01 -1.00729739e+00
  0.00000000e+00 -1.27721957e-01 -1.00729739e+00  0.00000000e+00 -1.56658211e+00
 -3.52345451e+00  0.00000000e+00 -1.56658211e+00 -3.52345451e+00  0.00000000e+00
 -1.56658211e+00 -3.52345451e+00  0.00000000e+00 -1.56658211e+00 -3.52345451e+00
  0.00000000e+00 -1.56658211e+00 -3.52345451e+00  0.00000000e+00
Total Energy                               R     -1.527969070767282e+02
Alpha Orbital Energies                     R   N=          82
 -1.90192269e+01 -1.89627922e+01 -1.17758951e+00 -1.12051250e+00 -6.88971516e-01
 -6.39804336e-01 -5.48472985e-01 -4.92589494e-01 -4.65496961e-01 -4.16683461e-01
  2.35076788e-02  5.32057896e-02  5.37791287e-02  8.93754295e-02  1.50663191e-01
  1.68797227e-01  2.02081866e-01  2.04145880e-01  2.13405793e-01  2.23010739e-01
  2.49492332e-01  2.58416790e-01  2.79312118e-01  3.11688181e-01  3.25544705e-01
  3.44703558e-01  3.57897107e-01  4.06319038e-01  4.22820305e-01  4.56183735e-01
  4.96529117e-01  5.15477662e-01  5.23885131e-01  5.76515543e-01  5.98610845e-01
  6.21834156e-01  6.29104159e-01  7.23506657e-01  7.43264483e-01  8.39785089e-01
  8.73649116e-01  9.46061918e-01  1.03287203e+00  1.05406120e+00  1.06074097e+00
  1.09102063e+00  1.11389262e+00  1.13090609e+00  1.23152506e+00  1.26609407e+00
  1.30849168e+00  1.33842592e+00  1.43082339e+00  1.43559651e+00  1.47862245e+00
  1.81636877e+00  1.82640530e+00  1.87954423e+00  1.89203868e+00  1.93183787e+00
  2.01019561e+00  2.12051330e+00  2.20974806e+00  2.23855405e+00  2.33108814e+00
  2.36200891e+00  2.39616617e+00  2.51555838e+00  2.55257744e+00  2.58573169e+00
  2.80768402e+00  2.89347081e+00  3.41262519e+00  3.41767248e+00  3.43114862e+00
  3.45734371e+00  3.49007497e+00  3.51155158e+00  3.75025927e+00  3.86575365e+00
  3.97097405e+00  4.09015894e+00
Alpha MO coefficients                      R   N=        6724
  1.00498800e+00  1.14369031e-02 -1.92019687e-02  1.48157631e-03  8.89978181e-04
  0.00000000e+00 -2.48449586e-03 -1.27276573e-03  0.00000000e+00  3.59824286e-04
  0.00000000e+00  0.00000000e+00  3.12242647e-05  2.01722403e-04 -1.20033942e-02
 -1.45066622e-03 -1.06796905e-03  0.00000000e+00 -6.24836546e-04  0.00000000e+00
  0.00000000e+00  5.14232680e-05 -3.61346437e-04  7.74082666e-04  9.21906603e-03
  4.12429539e-04  2.96450447e-04 -5.75504794e-04  1.15347309e-03 -2.21716336e-03
 -1.48080822e-03  2.93757925e-03  7.74082666e-04  9.21906603e-03  4.12429539e-04
  2.96450447e-04  5.75504794e-04  1.15347309e-03 -2.21716336e-03 -1.48080822e-03
 -2.93757925e-03 -2.32910809e-04 -2.04226241e-04  1.29851918e-03 -4.80641417e-05
  2.73699713e-05  0.00000000e+00  2.93055199e-04  5.14255010e-04  0.00000000e+00
 -6.21509431e-05  0.00000000e+00  0.00000000e+00 -1.03702627e-04 -3.73407943e-05
  1.33358018e-03  4.14446955e-04  5.07283247e-04  0.00000000e+00  1.42633711e-04
  0.00000000e+00  0.00000000e+00  1.95510047e-04  1.21888360e-04 -1.47180823e-04
 -2.28787524e-03 -4.81228579e-05  1.35714287e-04  0.00000000e+00 -1.52579215e-03
 -4.63818431e-04  2.13434307e-03  0.00000000e+00 -1.95757612e-05  1.46103154e-03
  1.87874838e-05  1.60075233e-05  0.00000000e+00  5.09354383e-04  3.99686471e-04
  3.31360665e-04  0.00000000e+00 -1.43780958e-05  1.88440736e-04 -5.16805041e-04
 -2.12782645e-05 -6.91610514e-05  0.00000000e+00  1.60545317e-04  1.06160887e-03
  0.00000000e+00  4.94671053e-05  0.00000000e+00  0.00000000e+00  6.88379165e-05
  5.89324308e-05 -1.08727014e-03  9.52128831e-05  7.05019275e-04  0.00000000e+00
 -4.49432071e-05  0.00000000e+00  0.00000000e+00 -3.30929084e-05 -2.28032882e-04
  1.06697505e-04 -6.74540785e-04  2.77780766e-05  1.05936571e-05 -2.13605644e-05
  1.18093247e-04  2.15488974e-04  2.78970400e-04 -2.77680548e-04  1.06697505e-04
 -6.74540785e-04  2.77780766e-05  1.05936571e-05  2.13605644e-05  1.18093247e-04
  2.15488974e-04  2.78970400e-04  2.77680548e-04 -1.00521918e+00 -1.18546238e-02
  2.17866370e-02  1.50193206e-03 -9.15083130e-04  0.00000000e+00 -2.36108124e-03
  2.54709608e-03  0.00000000e+00  2.45622473e-04  0.00000000e+00  0.00000000e+00
  2.13107766e-06 -1.88858987e-04  1.39108953e-02 -1.19171747e-03  2.26692061e-03
  0.00000000e+00 -2.96114519e-04  0.00000000e+00  0.00000000e+00  9.61365588e-05
  3.62917041e-04 -1.12609703e-03 -1.45186155e-02  1.02936136e-04 -8.33985815e-04
  0.00000000e+00 -1.20165118e-03 -7.91236198e-04  9.77455805e-03  0.00000000e+00
 -7.48875226e-04 -5.47976993e-03  6.84329431e-04  2.41648709e-04  0.00000000e+00
 -5.19418670e-04 -2.58227086e-03 -3.71590827e-04  0.00000000e+00  8.06600920e-03
 -4.37415193e-01 -3.53322922e-01 -8.91378099e-02 -5.78725854e-02  0.00000000e+00
  9.40560712e-03  1.82829086e-02  0.00000000e+00 -5.44474725e-03  0.00000000e+00
  0.00000000e+00 -2.95334022e-03 -6.30308123e-03 -9.65666436e-02 -1.78307746e-02
 -1.05248365e-03  0.00000000e+00  1.70775946e-02  0.00000000e+00  0.00000000e+00
  9.44864408e-03  1.24480523e-02 -2.15438844e-01  3.05866666e-02  1.67363729e-02
  1.15322786e-02 -3.59034930e-02  5.19989287e-03 -3.78954526e-03 -4.30852078e-03
  2.71538637e-03 -2.15438844e-01  3.05866666e-02  1.67363729e-02  1.15322786e-02
  3.59034930e-02  5.19989287e-03 -3.78954526e-03 -4.30852078e-03 -2.71538637e-03
  1.36209095e-04 -3.27482574e-02 -1.37603089e-02  5.93162989e-03 -6.73915263e-03
  0.00000000e+00  9.07176751e-04  5.92386787e-03  0.00000000e+00  2.48941973e-04
  0.00000000e+00  0.00000000e+00 -4.40687242e-04 -1.91636396e-04  3.93853595e-03
  7.82445861e-03  7.20805500e-03  0.00000000e+00 -5.62812711e-04  0.00000000e+00
  0.00000000e+00  1.09614355e-04  2.39027997e-04 -2.70081249e-02 -1.33805416e-02
 -3.53924081e-04  5.33978385e-03  0.00000000e+00 -1.02506073e-02 -6.03219849e-04
  2.46421732e-02  0.00000000e+00 -1.40764940e-02  2.27522757e-02 -2.20665223e-03
 -1.49001256e-03  0.00000000e+00  5.71804132e-03  5.80554153e-03  3.33598377e-03
  0.00000000e+00 -3.27261788e-04  3.72371538e-02  2.63997247e-02  9.10238129e-03
  1.21856013e-02  0.00000000e+00 -4.05177046e-03 -1.13696236e-03  0.00000000e+00
  4.97852919e-04  0.00000000e+00  0.00000000e+00  4.51719334e-04  3.52772414e-04
 -1.10654342e-02 -6.61283514e-03  4.58224613e-04  0.00000000e+00 -2.23807134e-03
  0.00000000e+00  0.00000000e+00 -1.45978509e-03  1.32932742e-04  2.10296560e-02
  9.92246248e-03 -1.85363176e-03 -1.19303865e-03  3.84345176e-03  4.11591659e-04
  4.95963286e-04 -1.37785073e-03  1.21446129e-03  2.10296560e-02  9.92246248e-03
 -1.85363176e-03 -1.19303865e-03 -3.84345176e-03  4.11591659e-04  4.95963286e-04
 -1.37785073e-03 -1.21446129e-03  8.45748019e-03 -4.36410387e-01 -3.60880441e-01
  9.48266857e-02 -4.98909332e-02  0.00000000e+00 -1.18312613e-02  3.75029787e-03
  0.00000000e+00  8.60990315e-03  0.00000000e+00  0.00000000e+00  1.45775963e-04
 -1.14255220e-03 -7.42221102e-02  1.17984979e-02 -6.74399310e-03  0.00000000e+00
 -1.94247746e-02  0.00000000e+00  0.00000000e+00 -3.07298064e-03  4.54893002e-03
 -2.06210916e-01  3.29569139e-02  2.67996096e-04  4.07106919e-02  0.00000000e+00
  3.15478216e-03  5.72272242e-03 -1.74148902e-02  0.00000000e+00 -2.19081333e-01
  1.53330355e-02 -3.55166805e-02 -2.08721872e-02  0.00000000e+00  2.24012891e-03
  5.20923227e-03 -2.18099903e-03  0.00000000e+00  0.00000000e+00  0.00000000e+00
  0.00000000e+00  0.00000000e+00  0.00000000e+00  5.18313282e-01  0.00000000e+00
  0.00000000e+00  1.52732337e-01  0.00000000e+00  2.03208505e-02  1.35089617e-02
  0.00000000e+00  0.00000000e+00  0.00000000e+00  0.00000000e+00  0.00000000e+00
  1.44960616e-02  0.00000000e+00 -3.27216117e-02 -2.56484248e-02  0.00000000e+00
  0.00000000e+00 -3.60572650e-01 -1.19115271e-01  2.69111040e-02  1.77312122e-02
 -2.25924474e-02 -6.86321592e-04  8.90679702e-03  5.75390783e-03 -1.95249823e-02
  3.60572650e-01  1.19115271e-01 -2.69111040e-02 -1.77312122e-02 -2.25924474e-02
  6.86321592e-04 -8.90679702e-03 -5.75390783e-03 -1.95249823e-02  0.00000000e+00
  0.00000000e+00  0.00000000e+00  0.00000000e+00  0.00000000e+00  4.70839861e-03
  0.00000000e+00  0.00000000e+00  2.65656957e-03  0.00000000e+00 -7.95418019e-05
  1.67047352e-04  0.00000000e+00  0.00000000e+00  0.00000000e+00  0.00000000e+00
  0.00000000e+00 -8.41127557e-04  0.00000000e+00 -1.72261052e-04 -1.66308289e-05
  0.00000000e+00  0.00000000e+00  0.00000000e+00  0.00000000e+00  0.00000000e+00
  0.00000000e+00  1.19207282e-03  0.00000000e+00  0.00000000e+00  0.00000000e+00
  1.71491563e-03  0.00000000e+00  0.00000000e+00  0.00000000e+00  0.00000000e+00
  1.87213129e-04  0.00000000e+00  0.00000000e+00  0.00000000e+00  5.57017703e-05
  1.67095422e-03 -9.95459188e-03 -4.00238575e-02  4.27758160e-02  1.17144828e-01
  0.00000000e+00  1.44976643e-02  7.26420665e-02  0.00000000e+00 -9.81778800e-05
  0.00000000e+00  0.00000000e+00  8.01183922e-04  3.08331510e-03 -2.12349319e-02
 -3.01660694e-04  1.49666458e-02  0.00000000e+00 -2.95098409e-03  0.00000000e+00
  0.00000000e+00  8.14192346e-04  2.05649033e-03  4.36146211e-02  9.30931092e-03
 -1.88917020e-03  1.89077409e-03  6.07322645e-03 -1.09924518e-03  2.40183131e-03
  3.05658646e-03 -7.90338408e-04  4.36146211e-02  9.30931092e-03 -1.88917020e-03
  1.89077409e-03 -6.07322645e-03 -1.09924518e-03  2.40183131e-03  3.05658646e-03
  7.90338408e-04 -6.06878950e-04  1.03290170e-04  6.30856658e-03 -2.44697630e-01
 -4.32622957e-01  0.00000000e+00 -6.87177122e-02 -1.23721232e-01  0.00000000e+00
 -2.63704433e-04  0.00000000e+00  0.00000000e+00  1.99822088e-02  1.22068747e-02
  9.27706285e-03 -5.92688465e-03 -4.45128313e-03  0.00000000e+00  4.18393035e-04
  0.00000000e+00  0.00000000e+00 -3.33029519e-02 -1.99587356e-02 -3.50566057e-01
 -1.40275868e-01 -1.58799780e-02  3.39552349e-02  0.00000000e+00  4.24067155e-03
  1.32577067e-03  4.12285994e-02  0.00000000e+00  3.49380458e-01  1.38659954e-01
  3.72204400e-02  2.20401362e-03  0.00000000e+00  2.82430091e-04  2.36707406e-02
  1.28839162e-02  0.00000000e+00  2.81146989e-03 -1.50779793e-01 -3.07468030e-01
  4.27368099e-01  3.14810537e-01  0.00000000e+00  2.33156811e-01  1.74526138e-01
  0.00000000e+00 -5.80350201e-03  0.00000000e+00  0.00000000e+00  5.04019573e-03
  1.18980381e-02 -6.76984044e-02  4.14304902e-02  2.62919120e-02  0.00000000e+00
 -1.72879059e-02  0.00000000e+00  0.00000000e+00  5.22750646e-03  4.72649484e-03
  1.94598907e-01  4.84184866e-02  2.74285875e-03  3.08372669e-03  2.56387605e-02
  6.36883625e-04  1.12190575e-02  8.43651800e-03  3.14000017e-03  1.94598907e-01
  4.84184866e-02  2.74285875e-03  3.08372669e-03 -2.56387605e-02  6.36883625e-04
  1.12190575e-02  8.43651800e-03 -3.14000017e-03 -4.85139233e-04  5.43127648e-02
  9.22821475e-02  1.53666060e-01  4.83000253e-02  0.00000000e+00  6.83137758e-02
  7.64583625e-03  0.00000000e+00  2.12184831e-03  0.00000000e+00  0.00000000e+00
 -4.92466032e-03 -2.63632936e-04  3.60632980e-02  1.82250804e-03  1.30495830e-03
  0.00000000e+00 -1.30854892e-03  0.00000000e+00  0.00000000e+00  4.27852809e-03
  7.08829794e-03  1.23938823e-02 -3.32786470e-03  8.60550452e-03 -1.01848438e-02
  0.00000000e+00  9.72546961e-03  1.02574165e-02 -2.27267483e-02  0.00000000e+00
 -1.16451765e-01 -5.35110311e-02 -9.21409983e-03 -5.02629726e-03  0.00000000e+00
 -6.69835343e-03 -2.87024295e-03 -2.69003340e-03  0.00000000e+00  1.95623128e-04
  4.92878244e-02  9.11560608e-02 -2.53745619e-01  1.30343467e-01  0.00000000e+00
 -1.58724445e-01  9.86390288e-02  0.00000000e+00  2.10780109e-03  0.00000000e+00
  0.00000000e+00 -5.93832337e-03 -1.13620954e-03  1.12212338e-02 -3.74286683e-02
  2.09930408e-02  0.00000000e+00  5.98084099e-03  0.00000000e+00  0.00000000e+00
 -5.15009884e-03  2.36203843e-03 -4.75415969e-02 -9.74032512e-03 -7.64145978e-03
  7.66082544e-03 -5.93919999e-03  2.33198301e-03 -6.30951379e-03  4.00873838e-03
 -1.88915011e-03 -4.75415969e-02 -9.74032512e-03 -7.64145978e-03  7.66082544e-03
  5.93919999e-03  2.33198301e-03 -6.30951379e-03  4.00873838e-03  1.88915011e-03
 -2.63476761e-03  1.45304028e-01  2.97655481e-01  4.31076087e-01 -2.32944708e-01
  0.00000000e+00  2.33515277e-01 -1.26415948e-01  0.00000000e+00  7.60159943e-03
  0.00000000e+00  0.00000000e+00 -6.34933074e-03  8.75737856e-03  1.19897153e-01
  4.79685541e-02 -1.04457205e-02  0.00000000e+00 -3.40020981e-03  0.00000000e+00
  0.00000000e+00 -8.55077016e-03  1.60191867e-02 -1.73791434e-01 -7.36351570e-02
  1.34733365e-02  1.81527275e-02  0.00000000e+00 -2.60336156e-02  1.10208486e-02
  1.11606402e-02  0.00000000e+00 -1.92229680e-01 -5.35876410e-02 -8.72066154e-03
 -2.22482433e-02  0.00000000e+00  5.89255612e-03  1.38537605e-02 -9.50517904e-03
  0.00000000e+00  4.46657024e-05  9.29693557e-03  1.19893048e-02  3.04652233e-01
 -4.89633138e-01  0.00000000e+00  2.01959859e-01 -3.34836025e-01  0.00000000e+00
  3.77430500e-04  0.00000000e+00  0.00000000e+00  1.23648462e-02 -5.80290572e-03
 -2.04036092e-02  2.99174476e-02 -7.14795073e-02  0.00000000e+00 -3.14335487e-03
  0.00000000e+00  0.00000000e+00  1.08526504e-02 -9.72505445e-03 -7.38602004e-03
  1.37549956e-02  1.37978106e-02 -2.10947308e-02 -4.29589550e-04  7.75698088e-03
  9.77264955e-03 -1.78217786e-02  2.95583186e-03 -7.38602004e-03  1.37549956e-02
  1.37978106e-02 -2.10947308e-02  4.29589550e-04  7.75698088e-03  9.77264955e-03
 -1.78217786e-02 -2.95583186e-03 -1.30788922e-03  4.32584195e-02  9.91876143e-02
  1.64550372e-01 -2.05945252e-01  0.00000000e+00  9.81486295e-02 -1.02660770e-01
  0.00000000e+00  3.62926590e-03  0.00000000e+00  0.00000000e+00  5.30636051e-05
  6.55635052e-03  2.94447706e-02  2.12664546e-02 -2.22540403e-02  0.00000000e+00
 -2.76811117e-03  0.00000000e+00  0.00000000e+00 -1.08089248e-02  5.69578810e-03
 -1.15337255e-01 -2.77403093e-02  5.16401008e-03  2.11020989e-02  0.00000000e+00
 -2.31890511e-02  9.92705645e-03  7.11586608e-03  0.00000000e+00 -3.29158681e-02
 -7.14435126e-04  1.26714427e-03 -1.16473501e-02  0.00000000e+00  6.28674318e-03
  8.37559172e-03 -3.88161162e-03  0.00000000e+00  0.00000000e+00  0.00000000e+00
  0.00000000e+00  0.00000000e+00  0.00000000e+00  1.03807358e-02  0.00000000e+00
  0.00000000e+00  2.09818009e-03  0.00000000e+00  5.36473307e-04  7.49140802e-04
  0.00000000e+00  0.00000000e+00  0.00000000e+00  0.00000000e+00  0.00000000e+00
 -1.58223782e-03  0.00000000e+00 -1.50920859e-03  9.72501963e-04  0.00000000e+00
  0.00000000e+00 -8.64806888e-03 -6.06766286e-03  4.37922743e-04  4.67537037e-04
 -5.45569916e-04 -4.87285635e-03  8.85945762e-04  6.86621250e-04  1.63869030e-05
  8.64806888e-03  6.06766286e-03 -4.37922743e-04 -4.67537037e-04 -5.45569916e-04
  4.87285635e-03 -8.85945762e-04 -6.86621250e-04  1.63869030e-05  0.00000000e+00
  0.00000000e+00  0.00000000e+00  0.00000000e+00  0.00000000e+00 -6.30605155e-01
  0.00000000e+00  0.00000000e+00 -4.22899562e-01  0.00000000e+00  1.25342093e-02
 -6.83390921e-03  0.00000000e+00  0.00000000e+00  0.00000000e+00  0.00000000e+00
  0.00000000e+00 -9.59147292e-02  0.00000000e+00  1.65239729e-02 -9.01460127e-03
  0.00000000e+00  0.00000000e+00  0.00000000e+00  0.00000000e+00  0.00000000e+00
  0.00000000e+00 -2.66549373e-02  0.00000000e+00  0.00000000e+00  0.00000000e+00
 -2.42799798e-02  0.00000000e+00  0.00000000e+00  0.00000000e+00  0.00000000e+00
 -2.83193920e-02  0.00000000e+00  0.00000000e+00  0.00000000e+00 -2.43592669e-02
 -2.14665705e-04  8.01512793e-02  2.45526475e-01  6.51947018e-02  5.47773008e-02
  0.00000000e+00  1.00069369e-01  6.21464233e-02  0.00000000e+00 -9.32838257e-04
  0.00000000e+00  0.00000000e+00  1.70631166e-03  1.14594594e-03  1.37436056e+00
  2.17700676e-01  2.42572056e-01  0.00000000e+00  2.35981806e-04  0.00000000e+00
  0.00000000e+00 -5.11328315e-03  6.76629853e-03 -3.32701490e-02 -4.86101846e-01
 -4.25805835e-03 -2.08222332e-03  8.43316632e-03 -9.57843397e-01  3.91355722e-02
  7.19901803e-03 -6.43736069e-02 -3.32701490e-02 -4.86101846e-01 -4.25805835e-03
 -2.08222332e-03 -8.43316632e-03 -9.57843397e-01  3.91355722e-02  7.19901803e-03
  6.43736069e-02  1.27383569e-03  3.41697214e-02  6.98753752e-02 -2.27160508e-02
  2.49535130e-02  0.00000000e+00 -3.55762047e-02  9.57686378e-03  0.00000000e+00
 -2.31720953e-04  0.00000000e+00  0.00000000e+00 -1.53529518e-04 -6.37605575e-04
  2.85732155e-01 -1.31437526e-01 -1.42761295e-02  0.00000000e+00 -3.29054480e-03
  0.00000000e+00  0.00000000e+00  3.51319507e-03 -8.85367186e-04 -4.56962013e-03
 -6.58528350e-02  5.89618081e-04 -4.34979172e-03  0.00000000e+00  9.57063259e-01
  2.55531767e-03 -6.06061117e-02  0.00000000e+00 -1.37232351e-02 -2.16937791e-01
  2.28933705e-03  1.66033440e-03  0.00000000e+00 -7.33481476e-01 -3.56820287e-02
 -2.53475034e-02  0.00000000e+00 -5.68922410e-04  7.51592776e-03  3.59836661e-02
  3.26048252e-02  4.90600419e-02  0.00000000e+00  3.31180623e-02  3.88144613e-02
  0.00000000e+00 -1.06901509e-03  0.00000000e+00  0.00000000e+00  7.92621088e-04
  7.24764216e-04  3.58178651e-01  4.81509724e-03  1.29243153e-01  0.00000000e+00
 -3.30226087e-03  0.00000000e+00  0.00000000e+00 -7.54474308e-03  3.77298367e-03
 -4.07506441e-03 -8.93493618e-02 -2.54808517e-03 -5.91144204e-04  5.02286235e-03
 -3.37794172e-01  2.37692106e-02 -6.93681818e-03 -2.51513557e-02 -4.07506441e-03
 -8.93493618e-02 -2.54808517e-03 -5.91144204e-04 -5.02286235e-03 -3.37794172e-01
  2.37692106e-02 -6.93681818e-03  2.51513557e-02  3.10352743e-03 -4.67223585e-02
 -2.05458547e-01  6.92739118e-02  3.02686664e-02  0.00000000e+00  1.24454271e-01
  2.99314594e-02  0.00000000e+00  1.11181047e-03  0.00000000e+00  0.00000000e+00
 -1.02198497e-03  1.36515107e-03 -1.28696447e+00  4.18496067e-01  3.67315588e-01
  0.00000000e+00  5.79419664e-03  0.00000000e+00  0.00000000e+00 -7.22406013e-03
 -1.22295264e-02  2.04433246e-02  7.36128785e-02  2.87694051e-03  4.10804892e-04
  0.00000000e+00 -6.82440881e-01 -3.48758752e-03 -3.68421489e-02  0.00000000e+00
  2.30643826e-02  7.53985665e-01 -7.30586021e-03 -1.52659063e-03  0.00000000e+00
  2.23497421e+00  1.86178425e-01  3.90385119e-02  0.00000000e+00  0.00000000e+00
  0.00000000e+00  0.00000000e+00  0.00000000e+00  0.00000000e+00  9.39833277e-02
  0.00000000e+00  0.00000000e+00  1.40809023e-01  0.00000000e+00  6.11110331e-04
  4.79623557e-04  0.00000000e+00  0.00000000e+00  0.00000000e+00  0.00000000e+00
  0.00000000e+00  8.09944011e-01  0.00000000e+00  1.18307915e-02  5.21467127e-03
  0.00000000e+00  0.00000000e+00  7.10725277e-03  5.20243395e-01  5.45487885e-03
  2.33294913e-03 -2.43402259e-03  2.90917517e+00 -9.52719414e-02 -5.44761614e-02
  6.71755570e-02 -7.10725277e-03 -5.20243395e-01 -5.45487885e-03 -2.33294913e-03
 -2.43402259e-03 -2.90917517e+00  9.52719414e-02  5.44761614e-02  6.71755570e-02
  0.00000000e+00  0.00000000e+00  0.00000000e+00  0.00000000e+00  0.00000000e+00
  3.14748730e-02  0.00000000e+00  0.00000000e+00  3.27376026e-02  0.00000000e+00
 -4.69303405e-04 -6.35030177e-04  0.00000000e+00  0.00000000e+00  0.00000000e+00
  0.00000000e+00  0.00000000e+00  9.14789064e-02  0.00000000e+00 -3.32989198e-03
  3.40870392e-03  0.00000000e+00  0.00000000e+00  0.00000000e+00  0.00000000e+00
  0.00000000e+00  0.00000000e+00  8.27228513e-04  0.00000000e+00  0.00000000e+00
  0.00000000e+00 -5.34348145e-02  0.00000000e+00  0.00000000e+00  0.00000000e+00
  0.00000000e+00  1.61619697e-03  0.00000000e+00  0.00000000e+00  0.00000000e+00
 -1.37878920e-02  6.29385536e-03  4.53950587e-02  3.09875545e-02  2.28695967e-02
 -5.27376746e-02  0.00000000e+00  2.76716403e-02 -2.22056544e-02  0.00000000e+00
 -1.17571317e-03  0.00000000e+00  0.00000000e+00  1.39092329e-03  1.86835857e-03
  1.12312006e-01 -1.99882550e-01 -5.00223895e-01  0.00000000e+00  3.12824608e-03
  0.00000000e+00  0.00000000e+00 -5.65889100e-03 -1.34814085e-02 -1.96645933e-02
  4.51065226e-02 -1.02275501e-04 -1.00383486e-04  3.64799886e-03  1.24000459e+00
  9.17555104e-03  5.16663069e-02  3.11984527e-02 -1.96645933e-02  4.51065226e-02
 -1.02275501e-04 -1.00383486e-04 -3.64799886e-03  1.24000459e+00  9.17555104e-03
  5.16663069e-02 -3.11984527e-02 -3.19501485e-03  3.52973404e-02  1.89572178e-01
  1.91447074e-02  2.43158037e-02  0.00000000e+00 -1.76669162e-02  1.44015327e-01
  0.00000000e+00 -1.53200175e-03  0.00000000e+00  0.00000000e+00 -9.97424856e-04
 -9.52421792e-04  1.85976398e+00  2.76460668e-01  8.70786451e-01  0.00000000e+00
 -1.29416028e-02  0.00000000e+00  0.00000000e+00 -2.76878849e-02 -8.47867921e-04
 -1.50692356e-02 -1.26916331e+00  1.15047536e-03  1.00309304e-02  0.00000000e+00
 -6.58221335e+00 -6.22888582e-02  2.93879539e-01  0.00000000e+00 -1.76012719e-02
  9.90685540e-02 -5.98223747e-04 -2.19438269e-03  0.00000000e+00  3.57520812e+00
  4.98363820e-02  3.14083504e-02  0.00000000e+00  2.50606346e-02  8.62115619e-02
 -2.11848847e-01  2.07199325e-01  1.60316940e-02  0.00000000e+00  5.68098499e-03
 -1.69175164e-02  0.00000000e+00 -6.82385133e-03  0.00000000e+00  0.00000000e+00
  3.91905671e-03 -3.68542587e-04 -4.60217434e+00 -1.84501860e+00  2.56303434e-01
  0.00000000e+00 -8.42572969e-03  0.00000000e+00  0.00000000e+00 -3.55547718e-03
 -6.35223784e-03 -2.76047121e-02  1.70856293e+00 -2.33963335e-02 -1.24415656e-02
  3.16059911e-02  4.61877821e-01 -1.14250983e-02 -2.59459876e-01  2.70571084e-01
 -2.76047121e-02  1.70856293e+00 -2.33963335e-02 -1.24415656e-02 -3.16059911e-02
  4.61877821e-01 -1.14250983e-02 -2.59459876e-01 -2.70571084e-01  1.28522458e-03
  3.39167414e-02  8.68950000e-02  3.34601028e-02 -6.01448015e-03  0.00000000e+00
 -7.39914624e-03 -2.60333073e-02  0.00000000e+00  4.19875338e-03  0.00000000e+00
  0.00000000e+00  1.09594110e-03  4.76813281e-03  1.65644913e-01 -2.89226853e-01
  3.08345241e-01  0.00000000e+00 -2.49397034e-03  0.00000000e+00  0.00000000e+00
  1.80272350e-02 -3.52965149e-02 -3.08164663e-02  1.88482667e-01 -7.79883042e-03
 -1.89152372e-02  0.00000000e+00  8.85006121e-01  2.95181173e-01  3.97669063e-01
  0.00000000e+00 -3.41087730e-02  8.30604341e-02 -3.55759833e-03  2.66612519e-05
  0.00000000e+00 -6.61271111e-01  1.11659746e-01  7.05392618e-02  0.00000000e+00
  2.57458049e-02  1.76521160e-01  3.55438663e-02  4.37362164e-02  6.72761521e-02
  0.00000000e+00 -8.40221397e-02 -1.13169512e-02  0.00000000e+00 -1.55446359e-03
  0.00000000e+00  0.00000000e+00 -3.97336633e-03  8.75072906e-04 -2.32122792e+00
  7.81333313e-02 -6.45757889e-01  0.00000000e+00 -2.52256810e-02  0.00000000e+00
  0.00000000e+00  2.07613290e-02 -2.21790460e-02 -6.72288541e-02  5.11759659e-01
 -7.87343945e-03 -9.38434531e-03  2.16348905e-02  6.98308368e-01 -2.80017178e-01