 argument  1 = H2O_DZ_A.nw
                                         
                                         
 
 
              Northwest Computational Chemistry Package (NWChem) 6.8
              ------------------------------------------------------
 
 
                    Environmental Molecular Sciences Laboratory
                       Pacific Northwest National Laboratory
                                Richland, WA 99352
 
                              Copyright (c) 1994-2017
                       Pacific Northwest National Laboratory
                            Battelle Memorial Institute
 
             NWChem is an open-source computational chemistry package
                        distributed under the terms of the
                      Educational Community License (ECL) 2.0
             A copy of the license is included with this distribution
                              in the LICENSE.TXT file
 
                                  ACKNOWLEDGMENT
                                  --------------

            This software and its documentation were developed at the
            EMSL at Pacific Northwest National Laboratory, a multiprogram
            national laboratory, operated for the U.S. Department of Energy
            by Battelle under Contract Number DE-AC05-76RL01830. Support
            for this work was provided by the Department of Energy Office
            of Biological and Environmental Research, Office of Basic
            Energy Sciences, and the Office of Advanced Scientific Computing.


           Job information
           ---------------

    hostname        = andreas-ixtreme-M5800
    program         = nwchem
    date            = Mon May  4 22:11:58 2020

    compiled        = Di_Mai_21_04:44:32_2019
    source          = /home/andreas/programs/nwchem/nwchem-6.8.1
    nwchem branch   = 6.8.1
    nwchem revision = v6.8-133-ge032219
    ga revision     = 5.6.5
    use scalapack   = F
    input           = H2O_DZ_A.nw
    prefix          = H2O_DZ_A.
    data base       = ./H2O_DZ_A.db
    status          = startup
    nproc           =        1
    time left       =     -1s



           Memory information
           ------------------

    heap     =  268435454 doubles =   2048.0 Mbytes
    stack    =  268435451 doubles =   2048.0 Mbytes
    global   =  536870912 doubles =   4096.0 Mbytes (distinct from heap & stack)
    total    = 1073741817 doubles =   8192.0 Mbytes
    verify   = yes
    hardfail = no 


           Directory information
           ---------------------
 
  0 permanent = .
  0 scratch   = /home/andreas/tmp/H2O_DZ_02
 
 
 
 
                                NWChem Input Module
                                -------------------
 
 
                           Properties:  H2O Method: PBE0
                           -----------------------------
 
 
                             Geometry "geometry" -> ""
                             -------------------------
 
 Output coordinates in a.u. (scale by  1.000000000 to convert to a.u.)
 
  No.       Tag          Charge          X              Y              Z
 ---- ---------------- ---------- -------------- -------------- --------------
    1 O                    8.0000     0.00000000     0.00000000     0.00000000
    2 H1                   1.0000    -1.45365196     0.00000000    -1.12168732
    3 H2                   1.0000     1.45365196     0.00000000    -1.12168732
 
      Atomic Mass 
      ----------- 
 
      O                 15.994910
      H1                 1.007825
      H2                 1.007825
 

 Effective nuclear repulsion energy (a.u.)       9.0580535577

            Nuclear Dipole moment (a.u.) 
            ----------------------------
        X                 Y               Z
 ---------------- ---------------- ----------------
     0.0000000000     0.0000000000    -2.2433746400
 
 
            XYZ format geometry
            -------------------
     3
 geometry
 O                     0.00000000     0.00000000     0.00000000
 H1                   -0.76923955     0.00000000    -0.59357141
 H2                    0.76923955     0.00000000    -0.59357141
 
 ==============================================================================
                                internuclear distances
 ------------------------------------------------------------------------------
       center one      |      center two      | atomic units |       a.u.
 ------------------------------------------------------------------------------
    2 H1               |   1 O                |     1.83611  |     1.83611
    3 H2               |   1 O                |     1.83611  |     1.83611
 ------------------------------------------------------------------------------
                         number of included internuclear distances:          2
 ==============================================================================



 ==============================================================================
                                 internuclear angles
 ------------------------------------------------------------------------------
        center 1       |       center 2       |       center 3       |  degrees
 ------------------------------------------------------------------------------
    2 H1               |   1 O                |   3 H2               |   104.69
 ------------------------------------------------------------------------------
                            number of included internuclear angles:          1
 ==============================================================================



                      Basis "ao basis" -> "" (spherical)
                      -----
  O (Oxygen)
  ----------
            Exponent  Coefficients 
       -------------- ---------------------------------------------------------
  1 S  1.17200000E+04  0.000710
  1 S  1.75900000E+03  0.005470
  1 S  4.00800000E+02  0.027837
  1 S  1.13700000E+02  0.104800
  1 S  3.70300000E+01  0.283062
  1 S  1.32700000E+01  0.448719
  1 S  5.02500000E+00  0.270952
  1 S  1.01300000E+00  0.015458
 
  2 S  1.17200000E+04 -0.000160
  2 S  1.75900000E+03 -0.001263
  2 S  4.00800000E+02 -0.006267
  2 S  1.13700000E+02 -0.025716
  2 S  3.70300000E+01 -0.070924
  2 S  1.32700000E+01 -0.165411
  2 S  5.02500000E+00 -0.116955
  2 S  1.01300000E+00  0.557368
 
  3 S  3.02300000E-01  1.000000
 
  4 P  1.77000000E+01  0.043018
  4 P  3.85400000E+00  0.228913
  4 P  1.04600000E+00  0.508728
 
  5 P  2.75300000E-01  1.000000
 
  6 D  1.18500000E+00  1.000000
 
  H (Hydrogen)
  ------------
            Exponent  Coefficients 
       -------------- ---------------------------------------------------------
  1 S  1.30100000E+01  0.019685
  1 S  1.96200000E+00  0.137977
  1 S  4.44600000E-01  0.478148
 
  2 S  1.22000000E-01  1.000000
 
  3 P  7.27000000E-01  1.000000
 


 Summary of "ao basis" -> "" (spherical)
 ------------------------------------------------------------------------------
       Tag                 Description            Shells   Functions and Types
 ---------------- ------------------------------  ------  ---------------------
 O                          cc-pVDZ                  6       14   3s2p1d
 H                          cc-pVDZ                  3        5   2s1p


 
                                 NWChem DFT Module
                                 -----------------
 
 
                           Properties:  H2O Method: PBE0
 
 


 Summary of "ao basis" -> "ao basis" (spherical)
 ------------------------------------------------------------------------------
       Tag                 Description            Shells   Functions and Types
 ---------------- ------------------------------  ------  ---------------------
 O                          cc-pVDZ                  6       14   3s2p1d
 H                          cc-pVDZ                  3        5   2s1p


  Caching 1-el integrals 
 
            General Information
            -------------------
          SCF calculation type: DFT
          Wavefunction type:  closed shell.
          No. of atoms     :     3
          No. of electrons :    10
           Alpha electrons :     5
            Beta electrons :     5
          Charge           :     0
          Spin multiplicity:     1
          Use of symmetry is: off; symmetry adaption is: off
          Maximum number of iterations:  60
          This is a Direct SCF calculation.
          AO basis - number of functions:    24
                     number of shells:    12
          Convergence on energy requested:  1.00D-06
          Convergence on density requested:  1.00D-05
          Convergence on gradient requested:  5.00D-04
 
              XC Information
              --------------
                         PBE0 Method XC Functional
                     Hartree-Fock (Exact) Exchange  0.250          
          PerdewBurkeErnzerhof Exchange Functional  0.750          
            Perdew 1991 LDA Correlation Functional  1.000 local    
           PerdewBurkeErnz. Correlation Functional  1.000 non-local
 
             Grid Information
             ----------------
          Grid used for XC integration:  fine      
          Radial quadrature: Mura-Knowles        
          Angular quadrature: Lebedev. 
          Tag              B.-S. Rad. Rad. Pts. Rad. Cut. Ang. Pts.
          ---              ---------- --------- --------- ---------
          O                   0.60       70           5.0       590
          H1                  0.35       60           7.0       590
          H2                  0.35       60           7.0       590
          Grid pruning is: on 
          Number of quadrature shells:   190
          Spatial weights used:  Erf1
 
          Convergence Information
          -----------------------
          Convergence aids based upon iterative change in 
          total energy or number of iterations. 
          Levelshifting, if invoked, occurs when the 
          HOMO/LUMO gap drops below (HL_TOL):  1.00D-02
          DIIS, if invoked, will attempt to extrapolate 
          using up to (NFOCK): 10 stored Fock matrices.

                    Damping( 0%)  Levelshifting(0.5)       DIIS
                  --------------- ------------------- ---------------
          dE  on:    start            ASAP                start   
          dE off:    2 iters         60 iters            60 iters 

 
      Screening Tolerance Information
      -------------------------------
          Density screening/tol_rho:  1.00D-10
          AO Gaussian exp screening on grid/accAOfunc:  14
          CD Gaussian exp screening on grid/accCDfunc:  20
          XC Gaussian exp screening on grid/accXCfunc:  20
          Schwarz screening/accCoul:  1.00D-08


 Setting tolerance for linear dependence to 1.00D-05
 
      Superposition of Atomic Density Guess
      -------------------------------------
 
 Sum of atomic energies:         -75.76222910
 
      Non-variational initial energy
      ------------------------------

 Total energy =     -75.897803
 1-e energy   =    -121.554142
 2-e energy   =      36.598285
 HOMO         =      -0.464908
 LUMO         =       0.087511
 
   Time after variat. SCF:      0.1
   Time prior to 1st pass:      0.1

 Grid_pts file          = /home/andreas/tmp/H2O_DZ_02/H2O_DZ_A.gridpts.0
 Record size in doubles =  12289        No. of grid_pts per rec  =   3070
 Max. records in memory =     42        Max. recs in file   =   9713671


           Memory utilization after 1st SCF pass: 
           Heap Space remaining (MW):      267.92           267917510
          Stack Space remaining (MW):      268.44           268435180

   convergence    iter        energy       DeltaE   RMS-Dens  Diis-err    time
 ---------------- ----- ----------------- --------- --------- ---------  ------
 d= 0,ls=0.0,diis     1    -76.3023093099 -8.54D+01  2.29D-02  3.63D-01     0.3
 d= 0,ls=0.0,diis     2    -76.3007692809  1.54D-03  1.18D-02  4.23D-01     0.5
 d= 0,ls=0.0,diis     3    -76.3382178994 -3.74D-02  1.31D-03  6.11D-03     0.7
 d= 0,ls=0.0,diis     4    -76.3387551489 -5.37D-04  1.12D-04  4.25D-05     0.9
 d= 0,ls=0.0,diis     5    -76.3387589188 -3.77D-06  1.08D-05  1.17D-07     1.1
 d= 0,ls=0.0,diis     6    -76.3387589349 -1.62D-08  1.27D-06  7.72D-10     1.3


         Total DFT energy =      -76.338758934946
      One electron energy =     -122.952471579005
           Coulomb energy =       46.829963420955
    Exchange-Corr. energy =       -9.274304334620
 Nuclear repulsion energy =        9.058053557724

 Numeric. integr. density =       10.000000289362

     Total iterative time =      1.2s


 
                       DFT Final Molecular Orbital Analysis
                       ------------------------------------
 
 Vector    1  Occ=2.000000D+00  E=-1.919789D+01
              MO Center= -3.8D-16, -1.3D-15, -1.3D-04, r^2= 1.5D-02
   Bfn.  Coefficient  Atom+Function         Bfn.  Coefficient  Atom+Function  
  ----- ------------  ---------------      ----- ------------  ---------------
     1      1.002848  1 O  s          
 
 Vector    2  Occ=2.000000D+00  E=-1.015087D+00
              MO Center= -4.1D-13, -3.9D-13, -2.0D-01, r^2= 5.0D-01
   Bfn.  Coefficient  Atom+Function         Bfn.  Coefficient  Atom+Function  
  ----- ------------  ---------------      ----- ------------  ---------------
     2      0.441104  1 O  s                  3      0.365572  1 O  s          
    15      0.198027  2 H  s                 20      0.198027  3 H  s          
     6     -0.108077  1 O  pz                17      0.036795  2 H  px         
    22     -0.036795  3 H  px         
 
 Vector    3  Occ=2.000000D+00  E=-5.223354D-01
              MO Center= -1.5D-12, -5.4D-14, -2.3D-01, r^2= 7.9D-01
   Bfn.  Coefficient  Atom+Function         Bfn.  Coefficient  Atom+Function  
  ----- ------------  ---------------      ----- ------------  ---------------
     4      0.499553  1 O  px                15     -0.329013  2 H  s          
    20      0.329013  3 H  s                  7      0.205908  1 O  px         
    16     -0.103562  2 H  s                 21      0.103562  3 H  s          
    19     -0.029425  2 H  pz                24      0.029425  3 H  pz         
 
 Vector    4  Occ=2.000000D+00  E=-3.778168D-01
              MO Center= -4.5D-13,  7.5D-13,  6.2D-02, r^2= 6.8D-01
   Bfn.  Coefficient  Atom+Function         Bfn.  Coefficient  Atom+Function  
  ----- ------------  ---------------      ----- ------------  ---------------
     6      0.544194  1 O  pz                 3      0.371516  1 O  s          
     9      0.356172  1 O  pz                15     -0.202481  2 H  s          
    20     -0.202481  3 H  s                  2      0.163950  1 O  s          
    16     -0.048956  2 H  s                 21     -0.048956  3 H  s          
    17     -0.026657  2 H  px                22      0.026657  3 H  px         
 
 Vector    5  Occ=2.000000D+00  E=-3.003678D-01
              MO Center= -5.7D-14, -3.9D-12, -2.5D-02, r^2= 6.0D-01
   Bfn.  Coefficient  Atom+Function         Bfn.  Coefficient  Atom+Function  
  ----- ------------  ---------------      ----- ------------  ---------------
     5      0.633395  1 O  py                 8      0.492123  1 O  py         
    18      0.033273  2 H  py                23      0.033273  3 H  py         
 
 Vector    6  Occ=0.000000D+00  E= 6.703637D-02
              MO Center= -1.6D-10,  4.0D-12, -7.0D-01, r^2= 2.8D+00
   Bfn.  Coefficient  Atom+Function         Bfn.  Coefficient  Atom+Function  
  ----- ------------  ---------------      ----- ------------  ---------------
     3      0.894297  1 O  s                 16     -0.762632  2 H  s          
    21     -0.762632  3 H  s                  9     -0.317193  1 O  pz         
     6     -0.245944  1 O  pz                 2      0.127980  1 O  s          
    15     -0.114316  2 H  s                 20     -0.114316  3 H  s          
     1     -0.030655  1 O  s          
 
 Vector    7  Occ=0.000000D+00  E= 1.422215D-01
              MO Center=  1.5D-10,  1.4D-13, -6.9D-01, r^2= 3.2D+00
   Bfn.  Coefficient  Atom+Function         Bfn.  Coefficient  Atom+Function  
  ----- ------------  ---------------      ----- ------------  ---------------
    16      1.290449  2 H  s                 21     -1.290449  3 H  s          
     7      0.618655  1 O  px                 4      0.365613  1 O  px         
    15      0.108299  2 H  s                 20     -0.108299  3 H  s          
 
 Vector    8  Occ=0.000000D+00  E= 5.714910D-01
              MO Center= -1.3D-10, -9.0D-14, -4.1D-01, r^2= 2.0D+00
   Bfn.  Coefficient  Atom+Function         Bfn.  Coefficient  Atom+Function  
  ----- ------------  ---------------      ----- ------------  ---------------
    15      0.936545  2 H  s                 20     -0.936545  3 H  s          
    16     -0.866876  2 H  s                 21      0.866876  3 H  s          
     7      0.318217  1 O  px                 4      0.290464  1 O  px         
    19     -0.136208  2 H  pz                24      0.136208  3 H  pz         
    13     -0.106970  1 O  d  1              17     -0.058062  2 H  px         
 
 Vector    9  Occ=0.000000D+00  E= 6.214668D-01
              MO Center=  1.3D-10,  9.1D-13, -6.0D-01, r^2= 1.8D+00
   Bfn.  Coefficient  Atom+Function         Bfn.  Coefficient  Atom+Function  
  ----- ------------  ---------------      ----- ------------  ---------------
    15      0.817188  2 H  s                 20      0.817188  3 H  s          
    16     -0.616086  2 H  s                 21     -0.616086  3 H  s          
     6      0.360275  1 O  pz                 3      0.329570  1 O  s          
    17     -0.248864  2 H  px                22      0.248864  3 H  px         
     2     -0.242011  1 O  s                 14      0.098152  1 O  d  2       
 
 Vector   10  Occ=0.000000D+00  E= 9.236406D-01
              MO Center=  2.7D-12, -8.2D-13,  9.6D-03, r^2= 1.2D+00
   Bfn.  Coefficient  Atom+Function         Bfn.  Coefficient  Atom+Function  
  ----- ------------  ---------------      ----- ------------  ---------------
     9      1.223073  1 O  pz                 6     -0.759802  1 O  pz         
     3     -0.635929  1 O  s                 15      0.507503  2 H  s          
    20      0.507503  3 H  s                 19      0.247673  2 H  pz         
    24      0.247673  3 H  pz                 2     -0.132047  1 O  s          
    16      0.098067  2 H  s                 21      0.098067  3 H  s          
 
 Vector   11  Occ=0.000000D+00  E= 9.454051D-01
              MO Center= -1.4D-14, -7.9D-13, -2.3D-02, r^2= 1.1D+00
   Bfn.  Coefficient  Atom+Function         Bfn.  Coefficient  Atom+Function  
  ----- ------------  ---------------      ----- ------------  ---------------
     8     -0.997793  1 O  py                 5      0.966094  1 O  py         
    18     -0.041881  2 H  py                23     -0.041881  3 H  py         
 
 Vector   12  Occ=0.000000D+00  E= 1.018328D+00
              MO Center=  8.5D-14,  1.5D-13,  1.6D-02, r^2= 1.8D+00
   Bfn.  Coefficient  Atom+Function         Bfn.  Coefficient  Atom+Function  
  ----- ------------  ---------------      ----- ------------  ---------------
     7      1.753910  1 O  px                16      0.824855  2 H  s          
    21     -0.824855  3 H  s                  4     -0.748831  1 O  px         
    15      0.369357  2 H  s                 20     -0.369357  3 H  s          
    17      0.271815  2 H  px                22      0.271815  3 H  px         
    19      0.127337  2 H  pz                24     -0.127337  3 H  pz         
 
 Vector   13  Occ=0.000000D+00  E= 1.221457D+00
              MO Center=  3.2D-12,  4.7D-13, -1.5D-01, r^2= 1.4D+00
   Bfn.  Coefficient  Atom+Function         Bfn.  Coefficient  Atom+Function  
  ----- ------------  ---------------      ----- ------------  ---------------
     9      0.745179  1 O  pz                 2     -0.564697  1 O  s          
     3      0.539974  1 O  s                 19     -0.523746  2 H  pz         
    24     -0.523746  3 H  pz                17      0.337416  2 H  px         
    22     -0.337416  3 H  px                15      0.329242  2 H  s          
    20      0.329242  3 H  s                  1     -0.217534  1 O  s          
 
 Vector   14  Occ=0.000000D+00  E= 1.239198D+00
              MO Center=  4.1D-13, -1.4D-13, -5.5D-01, r^2= 1.1D+00
   Bfn.  Coefficient  Atom+Function         Bfn.  Coefficient  Atom+Function  
  ----- ------------  ---------------      ----- ------------  ---------------
    18      0.681244  2 H  py                23     -0.681244  3 H  py         
    10     -0.141946  1 O  d -2       
 
 Vector   15  Occ=0.000000D+00  E= 1.437843D+00
              MO Center= -3.9D-13,  9.8D-13, -3.9D-01, r^2= 1.2D+00
   Bfn.  Coefficient  Atom+Function         Bfn.  Coefficient  Atom+Function  
  ----- ------------  ---------------      ----- ------------  ---------------
    18      0.759296  2 H  py                23      0.759296  3 H  py         
     8     -0.665479  1 O  py                11     -0.172701  1 O  d -1       
     5      0.027576  1 O  py         
 
 Vector   16  Occ=0.000000D+00  E= 1.613784D+00
              MO Center=  4.5D-12, -1.3D-12, -2.0D-01, r^2= 1.2D+00
   Bfn.  Coefficient  Atom+Function         Bfn.  Coefficient  Atom+Function  
  ----- ------------  ---------------      ----- ------------  ---------------
     3      2.970515  1 O  s                  2     -1.609387  1 O  s          
     9     -0.985370  1 O  pz                15     -0.784989  2 H  s          
    20     -0.784989  3 H  s                  1     -0.729708  1 O  s          
    16     -0.395592  2 H  s                 21     -0.395592  3 H  s          
    17     -0.355073  2 H  px                22      0.355073  3 H  px         
 
 Vector   17  Occ=0.000000D+00  E= 1.669839D+00
              MO Center=  3.5D-13, -2.2D-15, -5.2D-01, r^2= 1.3D+00
   Bfn.  Coefficient  Atom+Function         Bfn.  Coefficient  Atom+Function  
  ----- ------------  ---------------      ----- ------------  ---------------
     7      0.934467  1 O  px                19      0.697827  2 H  pz         
    24     -0.697827  3 H  pz                17     -0.449906  2 H  px         
    22     -0.449906  3 H  px                15      0.391244  2 H  s          
    20     -0.391244  3 H  s                 16      0.108904  2 H  s          
    21     -0.108904  3 H  s                  4     -0.034379  1 O  px         
 
 Vector   18  Occ=0.000000D+00  E= 2.109057D+00
              MO Center=  8.6D-12,  3.4D-15, -5.0D-01, r^2= 1.2D+00
   Bfn.  Coefficient  Atom+Function         Bfn.  Coefficient  Atom+Function  
  ----- ------------  ---------------      ----- ------------  ---------------
     4      0.772019  1 O  px                17      0.728051  2 H  px         
    22      0.728051  3 H  px                19      0.550597  2 H  pz         
    24     -0.550597  3 H  pz                16      0.378902  2 H  s          
    21     -0.378902  3 H  s                 15      0.254983  2 H  s          
    20     -0.254983  3 H  s                  7      0.197602  1 O  px         
 
 Vector   19  Occ=0.000000D+00  E= 2.144081D+00
              MO Center= -8.3D-12, -7.4D-14, -5.0D-01, r^2= 1.0D+00
   Bfn.  Coefficient  Atom+Function         Bfn.  Coefficient  Atom+Function  
  ----- ------------  ---------------      ----- ------------  ---------------
     3      0.904603  1 O  s                 17     -0.757808  2 H  px         
    22      0.757808  3 H  px                 2      0.624516  1 O  s          
     6     -0.623488  1 O  pz                19     -0.538988  2 H  pz         
    24     -0.538988  3 H  pz                15     -0.465050  2 H  s          
    20     -0.465050  3 H  s                  1      0.226626  1 O  s          
 
 Vector   20  Occ=0.000000D+00  E= 2.922816D+00
              MO Center= -6.6D-13,  1.8D-13, -7.2D-02, r^2= 5.9D-01
   Bfn.  Coefficient  Atom+Function         Bfn.  Coefficient  Atom+Function  
  ----- ------------  ---------------      ----- ------------  ---------------
    11      1.036662  1 O  d -1              18      0.394924  2 H  py         
    23      0.394924  3 H  py                 8     -0.310601  1 O  py         
 
 Vector   21  Occ=0.000000D+00  E= 2.968542D+00
              MO Center=  7.1D-13, -8.3D-15, -6.7D-02, r^2= 5.9D-01
   Bfn.  Coefficient  Atom+Function         Bfn.  Coefficient  Atom+Function  
  ----- ------------  ---------------      ----- ------------  ---------------
    10      1.059926  1 O  d -2              18      0.368059  2 H  py         
    23     -0.368059  3 H  py         
 
 Vector   22  Occ=0.000000D+00  E= 3.129685D+00
              MO Center=  2.8D-14,  8.9D-15, -7.4D-02, r^2= 6.6D-01
   Bfn.  Coefficient  Atom+Function         Bfn.  Coefficient  Atom+Function  
  ----- ------------  ---------------      ----- ------------  ---------------
    12      1.072152  1 O  d  0               9     -0.521757  1 O  pz         
     3      0.514163  1 O  s                 17     -0.342719  2 H  px         
    22      0.342719  3 H  px                19      0.322189  2 H  pz         
    24      0.322189  3 H  pz                15     -0.278199  2 H  s          
    20     -0.278199  3 H  s                 14     -0.191490  1 O  d  2       
 
 Vector   23  Occ=0.000000D+00  E= 3.477593D+00
              MO Center=  2.9D-13,  7.4D-15, -1.1D-01, r^2= 7.8D-01
   Bfn.  Coefficient  Atom+Function         Bfn.  Coefficient  Atom+Function  
  ----- ------------  ---------------      ----- ------------  ---------------
     3      2.274898  1 O  s                 15     -1.198123  2 H  s          
    20     -1.198123  3 H  s                 14      1.152485  1 O  d  2       
     9     -0.936009  1 O  pz                17     -0.632779  2 H  px         
    22      0.632779  3 H  px                19     -0.486762  2 H  pz         
    24     -0.486762  3 H  pz                 6     -0.372412  1 O  pz         
 
 Vector   24  Occ=0.000000D+00  E= 3.745023D+00
              MO Center= -2.0D-14, -6.1D-16, -3.8D-02, r^2= 8.0D-01
   Bfn.  Coefficient  Atom+Function         Bfn.  Coefficient  Atom+Function  
  ----- ------------  ---------------      ----- ------------  ---------------
    13      1.318080  1 O  d  1               7      1.159008  1 O  px         
    15      1.042590  2 H  s                 20     -1.042590  3 H  s          
    17      0.605571  2 H  px                22      0.605571  3 H  px         
    19      0.496951  2 H  pz                24     -0.496951  3 H  pz         
     4      0.429534  1 O  px                16      0.305845  2 H  s          
 

 center of mass
 --------------
 x =   0.00000000 y =   0.00000000 z =  -0.12553352

 moments of inertia (a.u.)
 ------------------
           2.252233054658           0.000000000000           0.000000000000
           0.000000000000           6.511511174207           0.000000000000
           0.000000000000           0.000000000000           4.259278119549
 
     Multipole analysis of the density
     ---------------------------------
 
     L   x y z        total         alpha         beta         nuclear
     -   - - -        -----         -----         ----         -------
     0   0 0 0     -0.000000     -5.000000     -5.000000     10.000000
 
     1   1 0 0      0.000000      0.000000      0.000000      0.000000
     1   0 1 0      0.000000      0.000000      0.000000      0.000000
     1   0 0 1     -0.763394      0.739990      0.739990     -2.243375
 
     2   2 0 0     -3.117319     -3.671764     -3.671764      4.226208
     2   1 1 0      0.000000      0.000000      0.000000      0.000000
     2   1 0 1     -0.000000     -0.000000     -0.000000      0.000000
     2   0 2 0     -5.221193     -2.610597     -2.610597      0.000000
     2   0 1 1     -0.000000     -0.000000     -0.000000      0.000000
     2   0 0 2     -4.053879     -3.285122     -3.285122      2.516365
 

 Task  times  cpu:        4.7s     wall:        1.3s
 
 
                                NWChem Input Module
                                -------------------
 
 
 Summary of allocated global arrays
-----------------------------------
  No active global arrays



                         GA Statistics for process    0
                         ------------------------------

       create   destroy   get      put      acc     scatter   gather  read&inc
calls:  114      114     4079      622     2493        0        0      476     
number of processes/call 1.00e+00 1.00e+00 1.00e+00 0.00e+00 0.00e+00
bytes total:             2.79e+06 5.07e+05 1.57e+06 0.00e+00 0.00e+00 3.81e+03
bytes remote:            0.00e+00 0.00e+00 0.00e+00 0.00e+00 0.00e+00 0.00e+00
Max memory consumed for GA by this process: 179712 bytes
 
 
 
                                     CITATION
                                     --------
                Please cite the following reference when publishing
                           results obtained with NWChem:
 
                 M. Valiev, E.J. Bylaska, N. Govind, K. Kowalski,
              T.P. Straatsma, H.J.J. van Dam, D. Wang, J. Nieplocha,
                        E. Apra, T.L. Windus, W.A. de Jong
                 "NWChem: a comprehensive and scalable open-source
                  solution for large scale molecular simulations"
                      Comput. Phys. Commun. 181, 1477 (2010)
                           doi:10.1016/j.cpc.2010.04.018
 
                                      AUTHORS
                                      -------
          E. Apra, E. J. Bylaska, W. A. de Jong, N. Govind, K. Kowalski,
       T. P. Straatsma, M. Valiev, H. J. J. van Dam, D. Wang, T. L. Windus,
        J. Hammond, J. Autschbach, K. Bhaskaran-Nair, J. Brabec, K. Lopata,
    S. A. Fischer, S. Krishnamoorthy, M. Jacquelin, W. Ma, M. Klemm, O. Villa,
      Y. Chen, V. Anisimov, F. Aquino, S. Hirata, M. T. Hackler, V. Konjkov,
            D. Mejia-Rodriguez, T. Risthaus, M. Malagoli, A. Marenich,
   A. Otero-de-la-Roza, J. Mullin, P. Nichols, R. Peverati, J. Pittner, Y. Zhao,
        P.-D. Fan, A. Fonari, M. J. Williamson, R. J. Harrison, J. R. Rehr,
      M. Dupuis, D. Silverstein, D. M. A. Smith, J. Nieplocha, V. Tipparaju,
    M. Krishnan, B. E. Van Kuiken, A. Vazquez-Mayagoitia, L. Jensen, M. Swart,
      Q. Wu, T. Van Voorhis, A. A. Auer, M. Nooijen, L. D. Crosby, E. Brown,
      G. Cisneros, G. I. Fann, H. Fruchtl, J. Garza, K. Hirao, R. A. Kendall,
      J. A. Nichols, K. Tsemekhman, K. Wolinski, J. Anchell, D. E. Bernholdt,
      P. Borowski, T. Clark, D. Clerc, H. Dachsel, M. J. O. Deegan, K. Dyall,
    D. Elwood, E. Glendening, M. Gutowski, A. C. Hess, J. Jaffe, B. G. Johnson,
     J. Ju, R. Kobayashi, R. Kutteh, Z. Lin, R. Littlefield, X. Long, B. Meng,
      T. Nakajima, S. Niu, L. Pollack, M. Rosing, K. Glaesemann, G. Sandrone,
      M. Stave, H. Taylor, G. Thomas, J. H. van Lenthe, A. T. Wong, Z. Zhang.

 Total times  cpu:        4.8s     wall:        1.3s
MA_summarize_allocated_blocks: starting scan ...
MA_summarize_allocated_blocks: scan completed: 0 heap blocks, 0 stack blocks
MA usage statistics:

	allocation statistics:
					      heap	     stack
					      ----	     -----
	current number of blocks	         0	         0
	maximum number of blocks	        20	        51
	current total bytes		         0	         0
	maximum total bytes		   4143560	  22510840
	maximum total K-bytes		      4144	     22511
	maximum total M-bytes		         5	        23
