Generated by Psi4
        SP                           DFT                       CC-PVDZ
Number of atoms                            I                3
Charge                                     I                0
Multiplicity                               I                1
Number of electrons                        I               10
Number of alpha electrons                  I                5
Number of beta electrons                   I                5
Number of basis functions                  I               24
Number of independent functions            I               24
Atomic numbers                             I   N=           3
           8           1           1
Nuclear charges                            R   N=           3
  8.00000000e+00  1.00000000e+00  1.00000000e+00
Current cartesian coordinates              R   N=           9
  0.00000000e+00  0.00000000e+00 -1.23909384e-01  0.00000000e+00 -1.42993672e+00
  9.83265921e-01  0.00000000e+00  1.42993672e+00  9.83265921e-01
Integer atomic weights                     I   N=           3
          15           1           1
Real atomic weights                        R   N=           3
  1.59949146e+01  1.00782503e+00  1.00782503e+00
Number of primitive shells                 I               32
Number of contracted shells                I               12
Pure/Cartesian d shells                    I                0
Pure/Cartesian f shells                    I                0
Highest angular momentum                   I                2
Largest degree of contraction              I                8
Shell types                                I   N=          12
           0           0           0           1           1          -2
           0           0           1           0           0           1
Number of primitives per shell             I   N=          12
           8           8           1           3           1           1
           3           1           1           3           1           1
Shell to atom map                          I   N=          12
           1           1           1           1           1           1
           2           2           2           3           3           3
Primitive exponents                        R   N=          32
  1.17200000e+04  1.75900000e+03  4.00800000e+02  1.13700000e+02  3.70300000e+01
  1.32700000e+01  5.02500000e+00  1.01300000e+00  1.17200000e+04  1.75900000e+03
  4.00800000e+02  1.13700000e+02  3.70300000e+01  1.32700000e+01  5.02500000e+00
  1.01300000e+00  3.02300000e-01  1.77000000e+01  3.85400000e+00  1.04600000e+00
  2.75300000e-01  1.18500000e+00  1.30100000e+01  1.96200000e+00  4.44600000e-01
  1.22000000e-01  7.27000000e-01  1.30100000e+01  1.96200000e+00  4.44600000e-01
  1.22000000e-01  7.27000000e-01
Contraction coefficients                   R   N=          32
  7.09645947e-04  5.46727229e-03  2.78231186e-02  1.04747740e-01  2.82920846e-01
  4.48495239e-01  2.70816885e-01  1.54502916e-02 -3.14443412e-04 -2.48213768e-03
 -1.23163554e-02 -5.05389173e-02 -1.39384903e-01 -3.25077495e-01 -2.29848308e-01
  1.09537935e+00  1.00000000e+00  6.26791663e-02  3.33536566e-01  7.41239642e-01
  1.00000000e+00  1.00000000e+00  3.34987264e-02  2.34800801e-01  8.13682958e-01
  1.00000000e+00  1.00000000e+00  3.34987264e-02  2.34800801e-01  8.13682958e-01
  1.00000000e+00  1.00000000e+00
Coordinates of each shell                  R   N=          36
  0.00000000e+00  0.00000000e+00 -1.23909384e-01  0.00000000e+00  0.00000000e+00
 -1.23909384e-01  0.00000000e+00  0.00000000e+00 -1.23909384e-01  0.00000000e+00
  0.00000000e+00 -1.23909384e-01  0.00000000e+00  0.00000000e+00 -1.23909384e-01
  0.00000000e+00  0.00000000e+00 -1.23909384e-01  0.00000000e+00 -1.42993672e+00
  9.83265921e-01  0.00000000e+00 -1.42993672e+00  9.83265921e-01  0.00000000e+00
 -1.42993672e+00  9.83265921e-01  0.00000000e+00  1.42993672e+00  9.83265921e-01
  0.00000000e+00  1.42993672e+00  9.83265921e-01  0.00000000e+00  1.42993672e+00
  9.83265921e-01
Total Energy                               R     -7.637297435296088e+01
Alpha Orbital Energies                     R   N=          24
 -1.89590020e+01 -1.12564152e+00 -6.39141624e-01 -4.88432971e-01 -4.12537749e-01
  1.57868639e-01  2.29342390e-01  6.76889163e-01  7.32289248e-01  1.02873521e+00
  1.05086503e+00  1.11705331e+00  1.32175722e+00  1.34863038e+00  1.54476310e+00
  1.71107340e+00  1.79337987e+00  2.23927908e+00  2.27753623e+00  3.03314784e+00
  3.07762355e+00  3.24445730e+00  3.57944393e+00  3.84740732e+00
Alpha MO coefficients                      R   N=         576
  1.00350247e+00  8.69165983e-03 -7.37125571e-03  0.00000000e+00  0.00000000e+00
  2.06851536e-03  0.00000000e+00  0.00000000e+00 -7.88967245e-04 -4.89049465e-07
  0.00000000e+00  0.00000000e+00 -5.15336853e-04  0.00000000e+00 -5.31065120e-04
  1.10618781e-03  0.00000000e+00 -1.06200841e-03  9.66218397e-04 -5.31065120e-04
  1.10618781e-03  0.00000000e+00  1.06200841e-03  9.66218397e-04  1.07921206e-02
 -4.29720183e-01 -3.51342775e-01  0.00000000e+00  0.00000000e+00 -1.14823892e-01
  0.00000000e+00  0.00000000e+00  7.77150939e-03 -2.40719923e-03  0.00000000e+00
  0.00000000e+00  5.11655511e-03  0.00000000e+00 -2.07268115e-01 -1.97501626e-02
  0.00000000e+00 -3.66718753e-02  1.83454677e-02 -2.07268115e-01 -1.97501626e-02
  0.00000000e+00  3.66718753e-02  1.83454677e-02  0.00000000e+00  0.00000000e+00
  0.00000000e+00  0.00000000e+00  5.05454079e-01  0.00000000e+00  0.00000000e+00
  1.97878149e-01  0.00000000e+00  0.00000000e+00  0.00000000e+00  2.30563300e-02
  0.00000000e+00  0.00000000e+00 -3.31941297e-01 -1.01680065e-01  0.00000000e+00
 -1.72705531e-02  2.93109604e-02  3.31941297e-01  1.01680065e-01  0.00000000e+00
 -1.72705531e-02 -2.93109604e-02  7.39539736e-03 -1.65299567e-01 -3.73844333e-01
  0.00000000e+00  0.00000000e+00  5.49104845e-01  0.00000000e+00  0.00000000e+00
  3.55314528e-01  1.94403084e-02  0.00000000e+00  0.00000000e+00 -1.12689467e-03
  0.00000000e+00  1.98067117e-01  4.00416349e-02  0.00000000e+00  2.64689747e-02
  1.47910798e-02  1.98067117e-01  4.00416349e-02  0.00000000e+00 -2.64689747e-02
  1.47910798e-02  0.00000000e+00  0.00000000e+00  0.00000000e+00  6.35142774e-01
  0.00000000e+00  0.00000000e+00  4.88899046e-01  0.00000000e+00  0.00000000e+00
  0.00000000e+00  2.00964033e-02  0.00000000e+00  0.00000000e+00  0.00000000e+00
  0.00000000e+00  0.00000000e+00  3.39271131e-02  0.00000000e+00  0.00000000e+00
  0.00000000e+00  0.00000000e+00  3.39271131e-02  0.00000000e+00  0.00000000e+00
  3.75642235e-02 -1.18463678e-01 -9.51230554e-01  0.00000000e+00  0.00000000e+00
 -2.30157290e-01  0.00000000e+00  0.00000000e+00 -3.15300316e-01 -8.53380000e-03
  0.00000000e+00  0.00000000e+00  6.96940979e-03  0.00000000e+00  9.70388588e-02
  7.88923275e-01  0.00000000e+00  6.53032293e-03 -9.95355065e-03  9.70388588e-02
  7.88923275e-01  0.00000000e+00 -6.53032293e-03 -9.95355065e-03  0.00000000e+00
  0.00000000e+00  0.00000000e+00  0.00000000e+00  3.44966015e-01  0.00000000e+00
  0.00000000e+00  6.36165785e-01  0.00000000e+00  0.00000000e+00  0.00000000e+00
  1.46196170e-02  0.00000000e+00  0.00000000e+00  8.28291309e-02  1.36145971e+00
  0.00000000e+00  1.23392303e-02 -7.09389395e-03 -8.28291309e-02 -1.36145971e+00
  0.00000000e+00  1.23392303e-02  7.09389395e-03  0.00000000e+00  0.00000000e+00
  0.00000000e+00  0.00000000e+00  3.11196793e-01  0.00000000e+00  0.00000000e+00
  3.34655505e-01  0.00000000e+00  0.00000000e+00  0.00000000e+00 -1.08213631e-01
  0.00000000e+00  0.00000000e+00  9.36343868e-01 -8.19386643e-01  0.00000000e+00
 -6.63157669e-02  1.42667339e-01 -9.36343868e-01  8.19386643e-01  0.00000000e+00
 -6.63157669e-02 -1.42667339e-01  6.83833328e-02  2.55842324e-01 -3.25407751e-01
  0.00000000e+00  0.00000000e+00  3.73489247e-01  0.00000000e+00  0.00000000e+00
 -4.61296688e-02  1.68590337e-03  0.00000000e+00  0.00000000e+00  9.96574459e-02
  0.00000000e+00 -8.03456239e-01  5.90623641e-01  0.00000000e+00  2.59642739e-01
 -5.22259702e-02 -8.03456239e-01  5.90623641e-01  0.00000000e+00 -2.59642739e-01
 -5.22259702e-02  4.66894659e-03  1.24761179e-01  6.77299288e-01  0.00000000e+00
  0.00000000e+00 -7.53831405e-01  0.00000000e+00  0.00000000e+00  1.24273423e+00
  1.51833904e-02  0.00000000e+00  0.00000000e+00  1.61525442e-02  0.00000000e+00
 -5.35809906e-01 -9.47658232e-02  0.00000000e+00 -3.48691611e-02  2.39269684e-01
 -5.35809906e-01 -9.47658232e-02  0.00000000e+00  3.48691611e-02  2.39269684e-01
  0.00000000e+00  0.00000000e+00  0.00000000e+00  9.65385060e-01  0.00000000e+00
  0.00000000e+00 -1.00937430e+00  0.00000000e+00  0.00000000e+00  0.00000000e+00
  2.31487699e-03  0.00000000e+00  0.00000000e+00  0.00000000e+00  0.00000000e+00
  0.00000000e+00 -2.94975348e-02  0.00000000e+00  0.00000000e+00  0.00000000e+00
  0.00000000e+00 -2.94975348e-02  0.00000000e+00  0.00000000e+00  0.00000000e+00
  0.00000000e+00  0.00000000e+00  0.00000000e+00  7.46820303e-01  0.00000000e+00
  0.00000000e+00 -1.76670900e+00  0.00000000e+00  0.00000000e+00  0.00000000e+00
 -2.14070577e-02  0.00000000e+00  0.00000000e+00 -3.87221802e-01 -8.16567261e-01
  0.00000000e+00 -2.62318716e-01  1.30677100e-01  3.87221802e-01  8.16567261e-01
  0.00000000e+00 -2.62318716e-01 -1.30677100e-01  2.14838055e-01  5.61734475e-01
 -5.38464527e-01  0.00000000e+00  0.00000000e+00 -1.41281290e-01  0.00000000e+00
  0.00000000e+00  7.45962896e-01 -1.26996067e-01  0.00000000e+00  0.00000000e+00
 -1.34489928e-02  0.00000000e+00 -3.27911380e-01  2.15257799e-01  0.00000000e+00
 -3.31274090e-01 -5.29764408e-01 -3.27911380e-01  2.15257799e-01  0.00000000e+00
  3.31274090e-01 -5.29764408e-01  0.00000000e+00  0.00000000e+00  0.00000000e+00
  0.00000000e+00  0.00000000e+00  0.00000000e+00  0.00000000e+00  0.00000000e+00
  0.00000000e+00  0.00000000e+00  0.00000000e+00  0.00000000e+00  0.00000000e+00
  1.41303636e-01  0.00000000e+00  0.00000000e+00 -6.82100243e-01  0.00000000e+00
  0.00000000e+00  0.00000000e+00  0.00000000e+00  6.82100243e-01  0.00000000e+00
  0.00000000e+00  0.00000000e+00  0.00000000e+00  0.00000000e+00  1.84524500e-03
  0.00000000e+00  0.00000000e+00 -6.58838071e-01  0.00000000e+00  0.00000000e+00
  0.00000000e+00  1.73098402e-01  0.00000000e+00  0.00000000e+00  0.00000000e+00
  0.00000000e+00  0.00000000e+00  7.61742193e-01  0.00000000e+00  0.00000000e+00
  0.00000000e+00  0.00000000e+00  7.61742193e-01  0.00000000e+00  0.00000000e+00
  7.21885961e-01  1.59397399e+00 -3.00883991e+00  0.00000000e+00  0.00000000e+00
 -8.41432496e-02  0.00000000e+00  0.00000000e+00 -9.86061683e-01  1.22845382e-01
  0.00000000e+00  0.00000000e+00 -1.13069215e-01  0.00000000e+00  8.13633828e-01
  3.94582951e-01  0.00000000e+00  3.60341934e-01  4.05976141e-02  8.13633828e-01
  3.94582951e-01  0.00000000e+00 -3.60341934e-01  4.05976141e-02  0.00000000e+00
  0.00000000e+00  0.00000000e+00  0.00000000e+00  1.68635527e-02  0.00000000e+00
  0.00000000e+00 -9.32976923e-01  0.00000000e+00  0.00000000e+00  0.00000000e+00
  3.31984796e-02  0.00000000e+00  0.00000000e+00 -3.93447712e-01 -1.08976761e-01
  0.00000000e+00  4.61376279e-01  7.00393481e-01  3.93447712e-01  1.08976761e-01
  0.00000000e+00  4.61376279e-01 -7.00393481e-01  0.00000000e+00  0.00000000e+00
  0.00000000e+00  0.00000000e+00  7.85448984e-01  0.00000000e+00  0.00000000e+00
  1.98140350e-01  0.00000000e+00  0.00000000e+00  0.00000000e+00 -1.43706823e-01
  0.00000000e+00  0.00000000e+00  2.80551159e-01  3.73865482e-01  0.00000000e+00
  7.39936928e-01 -5.56746574e-01 -2.80551159e-01 -3.73865482e-01  0.00000000e+00
  7.39936928e-01  5.56746574e-01  2.62005454e-01  6.93253566e-01  8.64453047e-01
  0.00000000e+00  0.00000000e+00  6.32860939e-01  0.00000000e+00  0.00000000e+00
  2.15996616e-01 -5.22636837e-02  0.00000000e+00  0.00000000e+00  2.22472023e-01
  0.00000000e+00 -4.76934700e-01 -1.81118860e-01  0.00000000e+00 -7.57044796e-01
  5.45894638e-01 -4.76934700e-01 -1.81118860e-01  0.00000000e+00  7.57044796e-01
  5.45894638e-01  0.00000000e+00  0.00000000e+00  0.00000000e+00  1.49275987e-02
  0.00000000e+00  0.00000000e+00 -3.22294031e-01  0.00000000e+00  0.00000000e+00
  0.00000000e+00 -1.04091628e+00  0.00000000e+00  0.00000000e+00  0.00000000e+00
  0.00000000e+00  0.00000000e+00  4.07748622e-01  0.00000000e+00  0.00000000e+00
  0.00000000e+00  0.00000000e+00  4.07748622e-01  0.00000000e+00  0.00000000e+00
  0.00000000e+00  0.00000000e+00  0.00000000e+00  0.00000000e+00  0.00000000e+00
  0.00000000e+00  0.00000000e+00  0.00000000e+00  0.00000000e+00  0.00000000e+00
  0.00000000e+00  0.00000000e+00  0.00000000e+00  1.06508146e+00  0.00000000e+00
  0.00000000e+00  3.78200120e-01  0.00000000e+00  0.00000000e+00  0.00000000e+00
  0.00000000e+00 -3.78200120e-01  0.00000000e+00  0.00000000e+00  8.47956821e-02
  1.57477184e-01 -5.37506223e-01  0.00000000e+00  0.00000000e+00 -7.50248536e-03
  0.00000000e+00  0.00000000e+00 -5.39575434e-01 -1.08063984e+00  0.00000000e+00
  0.00000000e+00 -1.92812645e-01  0.00000000e+00  2.92907409e-01  3.68203380e-02
  0.00000000e+00  3.49088762e-01  3.30023872e-01  2.92907409e-01  3.68203380e-02
  0.00000000e+00 -3.49088762e-01  3.30023872e-01  1.51145398e-01  1.95126337e-01
 -2.32181972e+00  0.00000000e+00  0.00000000e+00 -3.97040896e-01  0.00000000e+00
  0.00000000e+00 -9.50076399e-01 -1.50597425e-01  0.00000000e+00  0.00000000e+00
  1.15637322e+00  0.00000000e+00  1.24741234e+00  2.04522476e-01  0.00000000e+00
  6.35789483e-01 -4.97248851e-01  1.24741234e+00  2.04522476e-01  0.00000000e+00
 -6.35789483e-01 -4.97248851e-01  0.00000000e+00  0.00000000e+00  0.00000000e+00
  0.00000000e+00  4.58796337e-01  0.00000000e+00  0.00000000e+00  1.17776652e+00
  0.00000000e+00  0.00000000e+00  0.00000000e+00  1.32615520e+00  0.00000000e+00
  0.00000000e+00  1.09035992e+00  3.09010282e-01  0.00000000e+00  6.16332209e-01
 -5.03613430e-01 -1.09035992e+00 -3.09010282e-01  0.00000000e+00  6.16332209e-01
  5.03613430e-01
Beta Orbital Energies                      R   N=          24
 -1.89590020e+01 -1.12564152e+00 -6.39141624e-01 -4.88432971e-01 -4.12537749e-01
  1.57868639e-01  2.29342390e-01  6.76889163e-01  7.32289248e-01  1.02873521e+00
  1.05086503e+00  1.11705331e+00  1.32175722e+00  1.34863038e+00  1.54476310e+00
  1.71107340e+00  1.79337987e+00  2.23927908e+00  2.27753623e+00  3.03314784e+00
  3.07762355e+00  3.24445730e+00  3.57944393e+00  3.84740732e+00
Beta MO coefficients                       R   N=         576
  1.00350247e+00  8.69165983e-03 -7.37125571e-03  0.00000000e+00  0.00000000e+00
  2.06851536e-03  0.00000000e+00  0.00000000e+00 -7.88967245e-04 -4.89049465e-07
  0.00000000e+00  0.00000000e+00 -5.15336853e-04  0.00000000e+00 -5.31065120e-04
  1.10618781e-03  0.00000000e+00 -1.06200841e-03  9.66218397e-04 -5.31065120e-04
  1.10618781e-03  0.00000000e+00  1.06200841e-03  9.66218397e-04  1.07921206e-02
 -4.29720183e-01 -3.51342775e-01  0.00000000e+00  0.00000000e+00 -1.14823892e-01
  0.00000000e+00  0.00000000e+00  7.77150939e-03 -2.40719923e-03  0.00000000e+00
  0.00000000e+00  5.11655511e-03  0.00000000e+00 -2.07268115e-01 -1.97501626e-02
  0.00000000e+00 -3.66718753e-02  1.83454677e-02 -2.07268115e-01 -1.97501626e-02
  0.00000000e+00  3.66718753e-02  1.83454677e-02  0.00000000e+00  0.00000000e+00
  0.00000000e+00  0.00000000e+00  5.05454079e-01  0.00000000e+00  0.00000000e+00
  1.97878149e-01  0.00000000e+00  0.00000000e+00  0.00000000e+00  2.30563300e-02
  0.00000000e+00  0.00000000e+00 -3.31941297e-01 -1.01680065e-01  0.00000000e+00
 -1.72705531e-02  2.93109604e-02  3.31941297e-01  1.01680065e-01  0.00000000e+00
 -1.72705531e-02 -2.93109604e-02  7.39539736e-03 -1.65299567e-01 -3.73844333e-01
  0.00000000e+00  0.00000000e+00  5.49104845e-01  0.00000000e+00  0.00000000e+00
  3.55314528e-01  1.94403084e-02  0.00000000e+00  0.00000000e+00 -1.12689467e-03
  0.00000000e+00  1.98067117e-01  4.00416349e-02  0.00000000e+00  2.64689747e-02
  1.47910798e-02  1.98067117e-01  4.00416349e-02  0.00000000e+00 -2.64689747e-02
  1.47910798e-02  0.00000000e+00  0.00000000e+00  0.00000000e+00  6.35142774e-01
  0.00000000e+00  0.00000000e+00  4.88899046e-01  0.00000000e+00  0.00000000e+00
  0.00000000e+00  2.00964033e-02  0.00000000e+00  0.00000000e+00  0.00000000e+00
  0.00000000e+00  0.00000000e+00  3.39271131e-02  0.00000000e+00  0.00000000e+00
  0.00000000e+00  0.00000000e+00  3.39271131e-02  0.00000000e+00  0.00000000e+00
  3.75642235e-02 -1.18463678e-01 -9.51230554e-01  0.00000000e+00  0.00000000e+00
 -2.30157290e-01  0.00000000e+00  0.00000000e+00 -3.15300316e-01 -8.53380000e-03
  0.00000000e+00  0.00000000e+00  6.96940979e-03  0.00000000e+00  9.70388588e-02
  7.88923275e-01  0.00000000e+00  6.53032293e-03 -9.95355065e-03  9.70388588e-02
  7.88923275e-01  0.00000000e+00 -6.53032293e-03 -9.95355065e-03  0.00000000e+00
  0.00000000e+00  0.00000000e+00  0.00000000e+00  3.44966015e-01  0.00000000e+00
  0.00000000e+00  6.36165785e-01  0.00000000e+00  0.00000000e+00  0.00000000e+00
  1.46196170e-02  0.00000000e+00  0.00000000e+00  8.28291309e-02  1.36145971e+00
  0.00000000e+00  1.23392303e-02 -7.09389395e-03 -8.28291309e-02 -1.36145971e+00
  0.00000000e+00  1.23392303e-02  7.09389395e-03  0.00000000e+00  0.00000000e+00
  0.00000000e+00  0.00000000e+00  3.11196793e-01  0.00000000e+00  0.00000000e+00
  3.34655505e-01  0.00000000e+00  0.00000000e+00  0.00000000e+00 -1.08213631e-01
  0.00000000e+00  0.00000000e+00  9.36343868e-01 -8.19386643e-01  0.00000000e+00
 -6.63157669e-02  1.42667339e-01 -9.36343868e-01  8.19386643e-01  0.00000000e+00
 -6.63157669e-02 -1.42667339e-01  6.83833328e-02  2.55842324e-01 -3.25407751e-01
  0.00000000e+00  0.00000000e+00  3.73489247e-01  0.00000000e+00  0.00000000e+00
 -4.61296688e-02  1.68590337e-03  0.00000000e+00  0.00000000e+00  9.96574459e-02
  0.00000000e+00 -8.03456239e-01  5.90623641e-01  0.00000000e+00  2.59642739e-01
 -5.22259702e-02 -8.03456239e-01  5.90623641e-01  0.00000000e+00 -2.59642739e-01
 -5.22259702e-02  4.66894659e-03  1.24761179e-01  6.77299288e-01  0.00000000e+00
  0.00000000e+00 -7.53831405e-01  0.00000000e+00  0.00000000e+00  1.24273423e+00
  1.51833904e-02  0.00000000e+00  0.00000000e+00  1.61525442e-02  0.00000000e+00
 -5.35809906e-01 -9.47658232e-02  0.00000000e+00 -3.48691611e-02  2.39269684e-01
 -5.35809906e-01 -9.47658232e-02  0.00000000e+00  3.48691611e-02  2.39269684e-01
  0.00000000e+00  0.00000000e+00  0.00000000e+00  9.65385060e-01  0.00000000e+00
  0.00000000e+00 -1.00937430e+00  0.00000000e+00  0.00000000e+00  0.00000000e+00
  2.31487699e-03  0.00000000e+00  0.00000000e+00  0.00000000e+00  0.00000000e+00
  0.00000000e+00 -2.94975348e-02  0.00000000e+00  0.00000000e+00  0.00000000e+00
  0.00000000e+00 -2.94975348e-02  0.00000000e+00  0.00000000e+00  0.00000000e+00
  0.00000000e+00  0.00000000e+00  0.00000000e+00  7.46820303e-01  0.00000000e+00
  0.00000000e+00 -1.76670900e+00  0.00000000e+00  0.00000000e+00  0.00000000e+00
 -2.14070577e-02  0.00000000e+00  0.00000000e+00 -3.87221802e-01 -8.16567261e-01
  0.00000000e+00 -2.62318716e-01  1.30677100e-01  3.87221802e-01  8.16567261e-01
  0.00000000e+00 -2.62318716e-01 -1.30677100e-01  2.14838055e-01  5.61734475e-01
 -5.38464527e-01  0.00000000e+00  0.00000000e+00 -1.41281290e-01  0.00000000e+00
  0.00000000e+00  7.45962896e-01 -1.26996067e-01  0.00000000e+00  0.00000000e+00
 -1.34489928e-02  0.00000000e+00 -3.27911380e-01  2.15257799e-01  0.00000000e+00
 -3.31274090e-01 -5.29764408e-01 -3.27911380e-01  2.15257799e-01  0.00000000e+00
  3.31274090e-01 -5.29764408e-01  0.00000000e+00  0.00000000e+00  0.00000000e+00
  0.00000000e+00  0.00000000e+00  0.00000000e+00  0.00000000e+00  0.00000000e+00
  0.00000000e+00  0.00000000e+00  0.00000000e+00  0.00000000e+00  0.00000000e+00
  1.41303636e-01  0.00000000e+00  0.00000000e+00 -6.82100243e-01  0.00000000e+00
  0.00000000e+00  0.00000000e+00  0.00000000e+00  6.82100243e-01  0.00000000e+00
  0.00000000e+00  0.00000000e+00  0.00000000e+00  0.00000000e+00  1.84524500e-03
  0.00000000e+00  0.00000000e+00 -6.58838071e-01  0.00000000e+00  0.00000000e+00
  0.00000000e+00  1.73098402e-01  0.00000000e+00  0.00000000e+00  0.00000000e+00
  0.00000000e+00  0.00000000e+00  7.61742193e-01  0.00000000e+00  0.00000000e+00
  0.00000000e+00  0.00000000e+00  7.61742193e-01  0.00000000e+00  0.00000000e+00
  7.21885961e-01  1.59397399e+00 -3.00883991e+00  0.00000000e+00  0.00000000e+00
 -8.41432496e-02  0.00000000e+00  0.00000000e+00 -9.86061683e-01  1.22845382e-01
  0.00000000e+00  0.00000000e+00 -1.13069215e-01  0.00000000e+00  8.13633828e-01
  3.94582951e-01  0.00000000e+00  3.60341934e-01  4.05976141e-02  8.13633828e-01
  3.94582951e-01  0.00000000e+00 -3.60341934e-01  4.05976141e-02  0.00000000e+00
  0.00000000e+00  0.00000000e+00  0.00000000e+00  1.68635527e-02  0.00000000e+00
  0.00000000e+00 -9.32976923e-01  0.00000000e+00  0.00000000e+00  0.00000000e+00
  3.31984796e-02  0.00000000e+00  0.00000000e+00 -3.93447712e-01 -1.08976761e-01
  0.00000000e+00  4.61376279e-01  7.00393481e-01  3.93447712e-01  1.08976761e-01
  0.00000000e+00  4.61376279e-01 -7.00393481e-01  0.00000000e+00  0.00000000e+00
  0.00000000e+00  0.00000000e+00  7.85448984e-01  0.00000000e+00  0.00000000e+00
  1.98140350e-01  0.00000000e+00  0.00000000e+00  0.00000000e+00 -1.43706823e-01
  0.00000000e+00  0.00000000e+00  2.80551159e-01  3.73865482e-01  0.00000000e+00
  7.39936928e-01 -5.56746574e-01 -2.80551159e-01 -3.73865482e-01  0.00000000e+00
  7.39936928e-01  5.56746574e-01  2.62005454e-01  6.93253566e-01  8.64453047e-01
  0.00000000e+00  0.00000000e+00  6.32860939e-01  0.00000000e+00  0.00000000e+00
  2.15996616e-01 -5.22636837e-02  0.00000000e+00  0.00000000e+00  2.22472023e-01
  0.00000000e+00 -4.76934700e-01 -1.81118860e-01  0.00000000e+00 -7.57044796e-01
  5.45894638e-01 -4.76934700e-01 -1.81118860e-01  0.00000000e+00  7.57044796e-01
  5.45894638e-01  0.00000000e+00  0.00000000e+00  0.00000000e+00  1.49275987e-02
  0.00000000e+00  0.00000000e+00 -3.22294031e-01  0.00000000e+00  0.00000000e+00
  0.00000000e+00 -1.04091628e+00  0.00000000e+00  0.00000000e+00  0.00000000e+00
  0.00000000e+00  0.00000000e+00  4.07748622e-01  0.00000000e+00  0.00000000e+00
  0.00000000e+00  0.00000000e+00  4.07748622e-01  0.00000000e+00  0.00000000e+00
  0.00000000e+00  0.00000000e+00  0.00000000e+00  0.00000000e+00  0.00000000e+00
  0.00000000e+00  0.00000000e+00  0.00000000e+00  0.00000000e+00  0.00000000e+00
  0.00000000e+00  0.00000000e+00  0.00000000e+00  1.06508146e+00  0.00000000e+00
  0.00000000e+00  3.78200120e-01  0.00000000e+00  0.00000000e+00  0.00000000e+00
  0.00000000e+00 -3.78200120e-01  0.00000000e+00  0.00000000e+00  8.47956821e-02
  1.57477184e-01 -5.37506223e-01  0.00000000e+00  0.00000000e+00 -7.50248536e-03
  0.00000000e+00  0.00000000e+00 -5.39575434e-01 -1.08063984e+00  0.00000000e+00
  0.00000000e+00 -1.92812645e-01  0.00000000e+00  2.92907409e-01  3.68203380e-02
  0.00000000e+00  3.49088762e-01  3.30023872e-01  2.92907409e-01  3.68203380e-02
  0.00000000e+00 -3.49088762e-01  3.30023872e-01  1.51145398e-01  1.95126337e-01
 -2.32181972e+00  0.00000000e+00  0.00000000e+00 -3.97040896e-01  0.00000000e+00
  0.00000000e+00 -9.50076399e-01 -1.50597425e-01  0.00000000e+00  0.00000000e+00
  1.15637322e+00  0.00000000e+00  1.24741234e+00  2.04522476e-01  0.00000000e+00
  6.35789483e-01 -4.97248851e-01  1.24741234e+00  2.04522476e-01  0.00000000e+00
 -6.35789483e-01 -4.97248851e-01  0.00000000e+00  0.00000000e+00  0.00000000e+00
  0.00000000e+00  4.58796337e-01  0.00000000e+00  0.00000000e+00  1.17776652e+00
  0.00000000e+00  0.00000000e+00  0.00000000e+00  1.32615520e+00  0.00000000e+00
  0.00000000e+00  1.09035992e+00  3.09010282e-01  0.00000000e+00  6.16332209e-01
 -5.03613430e-01 -1.09035992e+00 -3.09010282e-01  0.00000000e+00  6.16332209e-01
  5.03613430e-01
Total SCF Density                          R   N=         300
  2.01437675e+00  5.72410826e-03  4.24117854e-01 -2.79070686e-02  4.25422639e-01
  5.26511333e-01  0.00000000e+00  0.00000000e+00  0.00000000e+00  8.06812687e-01
  0.00000000e+00  0.00000000e+00  0.00000000e+00  0.00000000e+00  5.10967652e-01
  9.79483103e-03 -8.28133412e-02 -3.29904874e-01  0.00000000e+00  0.00000000e+00
  6.29409871e-01  0.00000000e+00  0.00000000e+00  0.00000000e+00  6.21041393e-01
  0.00000000e+00  0.00000000e+00  4.78044555e-01  0.00000000e+00  0.00000000e+00
  0.00000000e+00  0.00000000e+00  2.00036635e-01  0.00000000e+00  0.00000000e+00
  7.83115235e-02  3.83966521e-03 -1.24159539e-01 -2.71113941e-01  0.00000000e+00
  0.00000000e+00  3.88421883e-01  0.00000000e+00  0.00000000e+00  2.52618865e-01
  2.34598517e-04 -4.35811344e-03 -1.28437869e-02  0.00000000e+00  0.00000000e+00
  2.19023410e-02  0.00000000e+00  0.00000000e+00  1.37774336e-02  7.67440399e-04
  0.00000000e+00  0.00000000e+00  0.00000000e+00  2.55281706e-02  0.00000000e+00
  0.00000000e+00  1.96502248e-02  0.00000000e+00  0.00000000e+00  0.00000000e+00
  8.07730848e-04  0.00000000e+00  0.00000000e+00  0.00000000e+00  0.00000000e+00
  2.33078321e-02  0.00000000e+00  0.00000000e+00  9.12468779e-03  0.00000000e+00
  0.00000000e+00  0.00000000e+00  1.06318870e-03 -9.40514322e-04 -4.03378185e-03
 -2.74516561e-03  0.00000000e+00  0.00000000e+00 -2.41470415e-03  0.00000000e+00
  0.00000000e+00 -7.20464217e-04 -6.84469910e-05  0.00000000e+00  0.00000000e+00
  5.54291997e-05  0.00000000e+00  0.00000000e+00  0.00000000e+00  0.00000000e+00
  0.00000000e+00  0.00000000e+00  0.00000000e+00  0.00000000e+00  0.00000000e+00
  0.00000000e+00  0.00000000e+00  0.00000000e+00  0.00000000e+00  0.00000000e+00
 -2.61000523e-03  1.12644535e-01 -2.44039953e-03  0.00000000e+00 -3.35562165e-01
  2.65115693e-01  0.00000000e+00 -1.31367859e-01  1.37531514e-01  8.69884347e-03
  0.00000000e+00 -1.53066961e-02 -2.56685166e-03  0.00000000e+00  3.84751921e-01
  2.38607974e-03  3.75558633e-03 -1.60768307e-02  0.00000000e+00 -1.02789207e-01
  4.85142689e-02  0.00000000e+00 -4.02405259e-02  2.81460266e-02  1.65192754e-03
  0.00000000e+00 -4.68873824e-03 -2.93491120e-04  0.00000000e+00  9.15514703e-02
  2.46669213e-02  0.00000000e+00  0.00000000e+00  0.00000000e+00  4.30971215e-02
  0.00000000e+00  0.00000000e+00  3.31738664e-02  0.00000000e+00  0.00000000e+00
  0.00000000e+00  1.36362589e-03  0.00000000e+00  0.00000000e+00  0.00000000e+00
  0.00000000e+00  0.00000000e+00  2.30209800e-03 -2.53149357e-03  2.27482086e-02
  5.99390123e-03  0.00000000e+00 -1.74589431e-02  3.74857058e-02  0.00000000e+00
 -6.83493017e-03  1.82413066e-02  1.20568412e-03  0.00000000e+00 -7.96391144e-04
 -4.33828251e-04  0.00000000e+00  3.71538355e-02  7.07806540e-03  0.00000000e+00
  4.68966586e-03  2.55394993e-03 -2.06399576e-02 -2.39644623e-02  0.00000000e+00
  2.96306890e-02  1.20347084e-02  0.00000000e+00  1.15999972e-02  1.07945904e-02
  4.86762969e-04  0.00000000e+00  1.35160635e-03  1.53399359e-04  0.00000000e+00
 -2.12056706e-02 -5.49867696e-03  0.00000000e+00 -1.57700124e-03  2.83079641e-03
 -2.61000523e-03  1.12644535e-01 -2.44039953e-03  0.00000000e+00  3.35562165e-01
  2.65115693e-01  0.00000000e+00  1.31367859e-01  1.37531514e-01  8.69884347e-03
  0.00000000e+00  1.53066961e-02 -2.56685166e-03  0.00000000e+00 -5.59881770e-02
 -4.34557796e-02  0.00000000e+00  1.42225963e-02  1.77124022e-02  3.84751921e-01
  2.38607974e-03  3.75558633e-03 -1.60768307e-02  0.00000000e+00  1.02789207e-01
  4.85142689e-02  0.00000000e+00  4.02405259e-02  2.81460266e-02  1.65192754e-03
  0.00000000e+00  4.68873824e-03 -2.93491120e-04  0.00000000e+00 -4.34557796e-02
 -1.66884209e-02  0.00000000e+00  5.37815649e-05  6.42268442e-03  9.15514703e-02
  2.46669213e-02  0.00000000e+00  0.00000000e+00  0.00000000e+00  4.30971215e-02
  0.00000000e+00  0.00000000e+00  3.31738664e-02  0.00000000e+00  0.00000000e+00
  0.00000000e+00  1.36362589e-03  0.00000000e+00  0.00000000e+00  0.00000000e+00
  0.00000000e+00  0.00000000e+00  2.30209800e-03  0.00000000e+00  0.00000000e+00
  0.00000000e+00  0.00000000e+00  2.30209800e-03  2.53149357e-03 -2.27482086e-02
 -5.99390123e-03  0.00000000e+00 -1.74589431e-02 -3.74857058e-02  0.00000000e+00
 -6.83493017e-03 -1.82413066e-02 -1.20568412e-03  0.00000000e+00 -7.96391144e-04
  4.33828251e-04  0.00000000e+00 -1.42225963e-02 -5.37815649e-05  0.00000000e+00
 -3.49657783e-03 -4.47864758e-04 -3.71538355e-02 -7.07806540e-03  0.00000000e+00
  4.68966586e-03  2.55394993e-03 -2.06399576e-02 -2.39644623e-02  0.00000000e+00
 -2.96306890e-02  1.20347084e-02  0.00000000e+00 -1.15999972e-02  1.07945904e-02
  4.86762969e-04  0.00000000e+00 -1.35160635e-03  1.53399359e-04  0.00000000e+00
  1.77124022e-02  6.42268442e-03  0.00000000e+00  4.47864758e-04 -6.05733187e-04
 -2.12056706e-02 -5.49867696e-03  0.00000000e+00  1.57700124e-03  2.83079641e-03
Spin SCF Density                           R   N=         300
  0.00000000e+00  0.00000000e+00  0.00000000e+00  0.00000000e+00  0.00000000e+00
  0.00000000e+00  0.00000000e+00  0.00000000e+00  0.00000000e+00  0.00000000e+00
  0.00000000e+00  0.00000000e+00  0.00000000e+00  0.00000000e+00  0.00000000e+00
  0.00000000e+00  0.00000000e+00  0.00000000e+00  0.00000000e+00  0.00000000e+00
  0.00000000e+00  0.00000000e+00  0.00000000e+00  0.00000000e+00  0.00000000e+00
  0.00000000e+00  0.00000000e+00  0.00000000e+00  0.00000000e+00  0.00000000e+00
  0.00000000e+00  0.00000000e+00  0.00000000e+00  0.00000000e+00  0.00000000e+00
  0.00000000e+00  0.00000000e+00  0.00000000e+00  0.00000000e+00  0.00000000e+00
  0.00000000e+00  0.00000000e+00  0.00000000e+00  0.00000000e+00  0.00000000e+00
  0.00000000e+00  0.00000000e+00  0.00000000e+00  0.00000000e+00  0.00000000e+00
  0.00000000e+00  0.00000000e+00  0.00000000e+00  0.00000000e+00  0.00000000e+00
  0.00000000e+00  0.00000000e+00  0.00000000e+00  0.00000000e+00  0.00000000e+00
  0.00000000e+00  0.00000000e+00  0.00000000e+00  0.00000000e+00  0.00000000e+00
  0.00000000e+00  0.00000000e+00  0.00000000e+00  0.00000000e+00  0.00000000e+00
  0.00000000e+00  0.00000000e+00  0.00000000e+00  0.00000000e+00  0.00000000e+00