

     ************************************************************************
     *************** Dalton - An Electronic Structure Program ***************
     ************************************************************************

    This is output from DALTON (Release Dalton2013 patch 0)
   ----------------------------------------------------------------------------
    NOTE:
     
    Dalton is an experimental code for the evaluation of molecular
    properties using (MC)SCF, DFT, CI, and CC wave functions.
    The authors accept no responsibility for the performance of
    the code or for the correctness of the results.
     
    The code (in whole or part) is provided under a licence and
    is not to be reproduced for further distribution without
    the written permission of the authors or their representatives.
     
    See the home page "http://daltonprogram.org" for further information.
     
    If results obtained with this code are published,
    the appropriate citations would be both of:
     
       K. Aidas, C. Angeli, K. L. Bak, V. Bakken, R. Bast,
       L. Boman, O. Christiansen, R. Cimiraglia, S. Coriani,
       P. Dahle, E. K. Dalskov, U. Ekstroem, T. Enevoldsen,
       J. J. Eriksen, P. Ettenhuber, B. Fernandez, L. Ferrighi,
       H. Fliegl, L. Frediani, K. Hald, A. Halkier, C. Haettig,
       H. Heiberg, T. Helgaker, A. C. Hennum, H. Hettema,
       E. Hjertenaes, S. Hoest, I.-M. Hoeyvik, M. F. Iozzi,
       B. Jansik, H. J. Aa. Jensen, D. Jonsson, P. Joergensen,
       J. Kauczor, S. Kirpekar, T. Kjaergaard, W. Klopper,
       S. Knecht, R. Kobayashi, H. Koch, J. Kongsted, A. Krapp,
       K. Kristensen, A. Ligabue, O. B. Lutnaes, J. I. Melo,
       K. V. Mikkelsen, R. H. Myhre, C. Neiss, C. B. Nielsen,
       P. Norman, J. Olsen, J. M. H. Olsen, A. Osted,
       M. J. Packer, F. Pawlowski, T. B. Pedersen, P. F. Provasi,
       S. Reine, Z. Rinkevicius, T. A. Ruden, K. Ruud, V. Rybkin,
       P. Salek, C. C. M. Samson, A. Sanchez de Meras, T. Saue,
       S. P. A. Sauer, B. Schimmelpfennig, K. Sneskov,
       A. H. Steindal, K. O. Sylvester-Hvid, P. R. Taylor,
       A. M. Teale, E. I. Tellgren, D. P. Tew, A. J. Thorvaldsen,
       L. Thoegersen, O. Vahtras, M. A. Watson, D. J. D. Wilson,
       M. Ziolkowski and H. Aagren,
       "The Dalton quantum chemistry program system",
       WIREs Comput. Mol. Sci. 2013. (doi: 10.1002/wcms.1172)
    
    and
    
       Dalton, a Molecular Electronic Structure Program,
       Release DALTON2013.0 (2013), see http://daltonprogram.org
   ----------------------------------------------------------------------------

    Authors in alphabetical order (major contribution(s) in parenthesis):

  Kestutis Aidas,           Vilnius University,           Lithuania   (QM/MM)
  Celestino Angeli,         University of Ferrara,        Italy       (NEVPT2)
  Keld L. Bak,              UNI-C,                        Denmark     (AOSOPPA, non-adiabatic coupling, magnetic properties)
  Vebjoern Bakken,          University of Oslo,           Norway      (DALTON; geometry optimizer, symmetry detection)
  Radovan Bast,             KTH Stockholm,                Sweden      (DALTON installation and execution frameworks)
  Linus Boman,              NTNU,                         Norway      (Cholesky decomposition and subsystems)
  Ove Christiansen,         Aarhus University,            Denmark     (CC module)
  Renzo Cimiraglia,         University of Ferrara,        Italy       (NEVPT2)
  Sonia Coriani,            University of Trieste,        Italy       (CC module, MCD in RESPONS)
  Paal Dahle,               University of Oslo,           Norway      (Parallelization)
  Erik K. Dalskov,          UNI-C,                        Denmark     (SOPPA)
  Thomas Enevoldsen,        Univ. of Southern Denmark,    Denmark     (SOPPA)
  Janus J. Eriksen,         Aarhus University,            Denmark     (PE-MP2/SOPPA, TDA)
  Berta Fernandez,          U. of Santiago de Compostela, Spain       (doublet spin, ESR in RESPONS)
  Lara Ferrighi,            Aarhus University,            Denmark     (PCM Cubic response)
  Heike Fliegl,             University of Oslo,           Norway      (CCSD(R12))
  Luca Frediani,            UiT The Arctic U. of Norway,  Norway      (PCM)
  Bin Gao,                  UiT The Arctic U. of Norway,  Norway      (Gen1Int library)
  Christof Haettig,         Ruhr-University Bochum,       Germany     (CC module)
  Kasper Hald,              Aarhus University,            Denmark     (CC module)
  Asger Halkier,            Aarhus University,            Denmark     (CC module)
  Hanne Heiberg,            University of Oslo,           Norway      (geometry analysis, selected one-electron integrals)
  Trygve Helgaker,          University of Oslo,           Norway      (DALTON; ABACUS, ERI, DFT modules, London, and much more)
  Alf Christian Hennum,     University of Oslo,           Norway      (Parity violation)
  Hinne Hettema,            University of Auckland,       New Zealand (quadratic response in RESPONS; SIRIUS supersymmetry)
  Eirik Hjertenaes,         NTNU,                         Norway      (Cholesky decomposition)
  Maria Francesca Iozzi,    University of Oslo,           Norway      (RPA)
  Brano Jansik              Technical Univ. of Ostrava    Czech Rep.  (DFT cubic response)
  Hans Joergen Aa. Jensen,  Univ. of Southern Denmark,    Denmark     (DALTON; SIRIUS, RESPONS, ABACUS modules, London, and much more)
  Dan Jonsson,              UiT The Arctic U. of Norway,  Norway      (cubic response in RESPONS module)
  Poul Joergensen,          Aarhus University,            Denmark     (RESPONS, ABACUS, and CC modules)
  Joanna Kauczor,           Linkoeping University,        Sweden      (Complex polarization propagator (CPP) module)
  Sheela Kirpekar,          Univ. of Southern Denmark,    Denmark     (Mass-velocity & Darwin integrals)
  Wim Klopper,              KIT Karlsruhe,                Germany     (R12 code in CC, SIRIUS, and ABACUS modules)
  Stefan Knecht,            ETH Zurich,                   Switzerland (Parallel CI and MCSCF)
  Rika Kobayashi,           Australian National Univ.,    Australia   (DIIS in CC, London in MCSCF)
  Henrik Koch,              NTNU,                         Norway      (CC module, Cholesky decomposition)
  Jacob Kongsted,           Univ. of Southern Denmark,    Denmark     (Polarizable embedding, QM/MM)
  Andrea Ligabue,           University of Modena,         Italy       (CTOCD, AOSOPPA)
  Ola B. Lutnaes,           University of Oslo,           Norway      (DFT Hessian)
  Juan I. Melo,             University of Buenos Aires,   Argentina   (LRESC, Relativistic Effects on NMR Shieldings)
  Kurt V. Mikkelsen,        University of Copenhagen,     Denmark     (MC-SCRF and QM/MM)
  Rolf H. Myhre,            NTNU,                         Norway      (Cholesky, subsystems and ECC2)
  Christian Neiss,          Univ. Erlangen-Nuernberg,     Germany     (CCSD(R12))
  Christian B. Nielsen,     University of Copenhagen,     Denmark     (QM/MM)
  Patrick Norman,           Linkoeping University,        Sweden      (Cubic response and complex response in RESPONS)
  Jeppe Olsen,              Aarhus University,            Denmark     (SIRIUS CI/density modules)
  Jogvan Magnus H. Olsen,   Univ. of Southern Denmark,    Denmark     (Polarizable embedding, PE library, QM/MM)
  Anders Osted,             Copenhagen University,        Denmark     (QM/MM)
  Martin J. Packer,         University of Sheffield,      UK          (SOPPA)
  Filip Pawlowski,          Kazimierz Wielki University,  Poland      (CC3)
  Thomas B. Pedersen,       University of Oslo,           Norway      (Cholesky decomposition)
  Patricio F. Provasi,      University of Northeastern,   Argentina   (Analysis of coupling constants in localized orbitals)
  Zilvinas Rinkevicius,     KTH Stockholm,                Sweden      (open-shell DFT, ESR)
  Elias Rudberg,            KTH Stockholm,                Sweden      (DFT grid and basis info)
  Torgeir A. Ruden,         University of Oslo,           Norway      (Numerical derivatives in ABACUS)
  Kenneth Ruud,             UiT The Arctic U. of Norway,  Norway      (DALTON; ABACUS magnetic properties and  much more)
  Pawel Salek,              KTH Stockholm,                Sweden      (DALTON; DFT code)
  Claire C. M. Samson       University of Karlsruhe       Germany     (Boys localization, r12 integrals in ERI)
  Alfredo Sanchez de Meras, University of Valencia,       Spain       (CC module, Cholesky decomposition)
  Trond Saue,               Paul Sabatier University,     France      (direct Fock matrix construction)
  Stephan P. A. Sauer,      University of Copenhagen,     Denmark     (SOPPA(CCSD), SOPPA prop., AOSOPPA, vibrational g-factors)
  Bernd Schimmelpfennig,    Forschungszentrum Karlsruhe,  Germany     (AMFI module)
  Kristian Sneskov,         Aarhus University,            Denmark     (QM/MM, PE-CC)
  Arnfinn H. Steindal,      UiT The Arctic U. of Norway,  Norway      (parallel QM/MM)
  K. O. Sylvester-Hvid,     University of Copenhagen,     Denmark     (MC-SCRF)
  Peter R. Taylor,          VLSCI/Univ. of Melbourne,     Australia   (Symmetry handling ABACUS, integral transformation)
  Andrew M. Teale,          University of Nottingham,     England     (DFT-AC, DFT-D)
  David P. Tew,             University of Bristol,        England     (CCSD(R12))
  Olav Vahtras,             KTH Stockholm,                Sweden      (triplet response, spin-orbit, ESR, TDDFT, open-shell DFT)
  David J. Wilson,          La Trobe University,          Australia   (DFT Hessian and DFT magnetizabilities)
  Hans Agren,               KTH Stockholm,                Sweden      (SIRIUS module, RESPONS, MC-SCRF solvation model)
 --------------------------------------------------------------------------------

     Date and time (Linux)  : Thu Mar  6 15:30:42 2014
     Host name              : whirligig                               

 * Work memory size             :   320000000 =  2.384 gigabytes.

 * Directories for basis set searches:
   1) /scratch/fastscratch/ajs1/OC-ClF_15-30-41
   2) /usr/local/dalton_gfortran_64/basis


Compilation information
-----------------------

 Who compiled             | ajs1
 Host                     | whirligig
 System                   | Linux-3.2.0-56-generic
 CMake generator          | Unix Makefiles
 Processor                | x86_64
 64-bit integers          | ON
 MPI                      | OFF
 Fortran compiler         | /usr/bin/gfortran
 Fortran compiler version | GNU Fortran (Ubuntu/Linaro 4.6.3-1ubuntu5) 4.6.3
 C compiler               | /usr/bin/gcc
 C compiler version       | gcc (Ubuntu/Linaro 4.6.3-1ubuntu5) 4.6.3
 C++ compiler             | /usr/bin/g++
 C++ compiler version     | g++ (Ubuntu/Linaro 4.6.3-1ubuntu5) 4.6.3
 Explicit libs            | -L/usr/local/shared/atlas/Linux_core2duo_sse3_sse4
                          | _1/lib -llapack -lf77blas -lcblas -latlas
 Static linking           | OFF
 Last Git revision        | 575a5cf6d2c5c3776735f11fa026dbfca0382455
 Configuration time       | 2013-12-02 17:16:29.544027


   Content of the .dal input file
 ----------------------------------

**DALTON INPUT                                    
.RUN WAVE FUNCTION                                
.DIRECT                                           
**INTEGRALS                                       
.NOSUP                                            
.PRINT                                            
    1                                             
**WAVE FUNCTIONS                                  
.DFT                                              
PBE0                                              
.INTERFACE                                        
*AUXILIARY INPUT                                  
.NOSUPMAT                                         
*ORBITALS                                         
.NOSUPSYM                                         
.AO DELETE                                        
 1.0E-6                                           
.CMOMAX                                           
 1000.0                                           
*DFT INPUT                                        
! .CKS                                            
.DFTELS                                           
0.01                                              
.DFTAC                                            
MULTPOLE                                          
TANH                                              
0.4708 0.4708 3.0 4.0                             
.RADINT                                           
1.0E-13                                           
.ANGINT                                           
35                                                
*SCF INPUT                                        
.THRESH                                           
1.0D-6                                            
*ORBITAL INPUT                                    
*END OF INPUT                                     


   Content of the .mol file
 ----------------------------

INTGRL                                                                         
  OC with ClF                                                                  
  Basis is sadlej and type MC+                                                 
Spherical  Atomtypes=5  Charge=0 Integrals=1.0D-16 Nosymmetry                  
!                                                                              
!                                                                              
! ClF                                                                          
!                                                                              
Charge= 17.0  Atoms=1 Blocks=3 1 1 1                                           
Cl               0.00000000         0.00000000         0.00000000              
!  Sadlej pVTZ  EMSL  Basis Set Exchange Library   3/7/07 9:35 AM              
! A. J. Sadlej, Collec. Czech. Chem. Commun.  53, 1995 (1988)                  
!  A. J. Sadlej and M. Urban, J. Mol. Struct. (THEOCHEM) 234, 147 (1991)       
!  A. J. Sadlej, Theor. Chim. Acta 79, 123 (1992)                              
!  A. J. Sadlej, Theor. Chim. Acta 81, 45 (1992)                               
!  A. J. Sadlej, Theor. Chim. Acta 81, 339 (1992)                              
!                                                                              
! Basis = Sadlej pVTZ                                                          
! CHLORINE       (14s,10p,4d)->[7s,5p,2d]                                      
! s functions                                                                  
F  14    7                                                                     
 105818.8000000  0.0007430  0.0000000  0.0000  0.0000  0.0000  0.0000  0.0000  
  15872.0000000  0.0057540  0.0000000  0.0000  0.0000  0.0000  0.0000  0.0000  
   3619.7000000  0.0296740  0.0000000  0.0000  0.0000  0.0000  0.0000  0.0000  
   1030.8000000  0.1179910  0.0000000  0.0000  0.0000  0.0000  0.0000  0.0000  
    339.9100000  0.3653190  0.0000000  0.0000  0.0000  0.0000  0.0000  0.0000  
    124.5380000  0.5811460  0.0000000  0.0000  0.0000  0.0000  0.0000  0.0000  
    124.5380000  0.0000000  0.1375430  0.0000  0.0000  0.0000  0.0000  0.0000  
     49.5140000  0.0000000  0.6229200  0.0000  0.0000  0.0000  0.0000  0.0000  
     20.8060000  0.0000000  0.2901060  0.0000  0.0000  0.0000  0.0000  0.0000  
      6.4648000  0.0000000  0.0000000  1.0000  0.0000  0.0000  0.0000  0.0000  
      2.5254000  0.0000000  0.0000000  0.0000  1.0000  0.0000  0.0000  0.0000  
      0.5378000  0.0000000  0.0000000  0.0000  0.0000  1.0000  0.0000  0.0000  
      0.1935000  0.0000000  0.0000000  0.0000  0.0000  0.0000  1.0000  0.0000  
      0.0696000  0.0000000  0.0000000  0.0000  0.0000  0.0000  0.0000  1.0000  
! p functions                                                                  
F  10    5                                                                     
    589.7800000  0.0029820  0.0000000  0.0000000  0.0000000  0.0000000         
    139.8500000  0.0233750  0.0000000  0.0000000  0.0000000  0.0000000         
     44.7950000  0.1039980  0.0000000  0.0000000  0.0000000  0.0000000         
     16.6120000  0.2844300  0.0000000  0.0000000  0.0000000  0.0000000         
      6.5995000  0.4506860  0.0000000  0.0000000  0.0000000  0.0000000         
      2.7141000  0.3230640  0.0000000  0.0000000  0.0000000  0.0000000         
      0.9528000  0.0000000  1.0000000  0.0000000  0.0000000  0.0000000         
      0.3580000  0.0000000  0.0000000  1.0000000  0.0000000  0.0000000         
      0.1250000  0.0000000  0.0000000  0.0000000  1.0000000  0.0000000         
      0.0436000  0.0000000  0.0000000  0.0000000  0.0000000  1.0000000         
! d functions                                                                  
F  4    2                                                                      
      0.9528000  0.2853000  0.0000000                                          
      0.3580000  0.8169000  0.0000000                                          
      0.1250000  0.0000000  0.1013000                                          
      0.0436000  0.0000000  0.0430000                                          
!                                                                              
Charge=  9.0  Atoms=1 Blocks=3 1 1 1                                           
F                0.00000000         0.00000000         3.15938392              
! Basis = Sadlej pVTZ                                                          
! FLUORINE       (10s,6p,4d)->[5s,3p,2d]                                       
! s functions                                                                  
F  10    5                                                                     
  13521.5230000  0.0008010  0.0000000  0.0000000  0.0000000  0.0000000         
   2028.6916000  0.0061640  0.0000000  0.0000000  0.0000000  0.0000000         
    462.3739200  0.0312440  0.0000000  0.0000000  0.0000000  0.0000000         
    131.3736600  0.1160810  0.0000000  0.0000000  0.0000000  0.0000000         
     42.9745310  0.3035890  0.0000000  0.0000000  0.0000000  0.0000000         
     15.5714400  0.0000000  0.4459040  0.0000000  0.0000000  0.0000000         
      6.0322320  0.0000000  0.2391150  0.0000000  0.0000000  0.0000000         
      1.3072150  0.0000000  0.0000000  1.0000000  0.0000000  0.0000000         
      0.3888690  0.0000000  0.0000000  0.0000000  1.0000000  0.0000000         
      0.1156800  0.0000000  0.0000000  0.0000000  0.0000000  1.0000000         
! p functions                                                                  
F   6    3                                                                     
     44.1473030  0.0165090  0.0000000  0.0000000                               
      9.9934260  0.1034810  0.0000000  0.0000000                               
      2.9532460  0.3154810  0.0000000  0.0000000                               
      0.9185970  0.4893530  0.0000000  0.0000000                               
      0.2668240  0.0000000  1.0000000  0.0000000                               
      0.0775000  0.0000000  0.0000000  1.0000000                               
! d functions                                                                  
F   4    2                                                                     
      2.9532000  0.1835400  0.0000000                                          
      0.9186000  0.5105800  0.0000000                                          
      0.2668000  0.0000000  0.6992500                                          
      0.0775000  0.0000000  0.4292600                                          
!                                                                              
!                                                                              
!                                                                              
! OC                                                                           
!                                                                              
Charge= 0.0 Atoms=1 Blocks=2 1 1                                               
C                0.00000000         0.00000000        -5.29123277              
!                                                                              
! BASIS="Sadlej pVTZ"                                                          
! A. J. Sadlej, Collec. Czech. Chem. Commun.  53, 1995 (1988)                  
! A. J. Sadlej and M. Urban, J. Mol. Struct. (THEOCHEM) 234, 147 (1991)        
! A. J. Sadlej, Theor. Chim. Acta 79, 123 (1992)                               
! A. J. Sadlej, Theor. Chim. Acta 81, 45 (1992)                                
! A. J. Sadlej, Theor. Chim. Acta 81, 339 (1992)                               
!                                                                              
! (10S,6P,4D) -> [5S,3P,2D]                                                    
!                                                                              
! NOTE: Basis from DALTON/CADPAC library (different from online basis)         
! Online basis has:                                                            
!  D   2                                                                       
!   1        1.206700000         0.2628500000                                  
!   2       0.3855000000         0.8043000000                                  
!  D   2                                                                       
!   1       0.1219000000         0.6535000000                                  
!   2       0.3860000000E-01     0.8636000000                                  
!                                                                              
!                                                                              
!  S functions                                                                 
F  10    5                                                                     
  5240.63530   0.000937   0.000000   0.000000   0.000000   0.000000            
   782.20480   0.007228   0.000000   0.000000   0.000000   0.000000            
   178.35083   0.036344   0.000000   0.000000   0.000000   0.000000            
    50.81594   0.130600   0.000000   0.000000   0.000000   0.000000            
    16.82356   0.318931   0.000000   0.000000   0.000000   0.000000            
     6.17578   0.000000   0.438742   0.000000   0.000000   0.000000            
     2.41805   0.000000   0.214974   0.000000   0.000000   0.000000            
     0.51190   0.000000   0.000000   1.000000   0.000000   0.000000            
     0.15659   0.000000   0.000000   0.000000   1.000000   0.000000            
     0.04790   0.000000   0.000000   0.000000   0.000000   1.000000            
!                                                                              
!  P functions                                                                 
F   6    3                                                                     
    18.84180   0.013887   0.000000   0.000000                                  
     4.15924   0.086279   0.000000   0.000000                                  
     1.20671   0.288744   0.000000   0.000000                                  
     0.38554   0.499411   0.000000   0.000000                                  
     0.12194   0.000000   1.000000   0.000000                                  
     0.03857   0.000000   0.000000   1.000000                                  
!                                                                              
!                                                                              
Charge= 0.0 Atoms=1 Blocks=2 1 1                                               
O                0.00000000         0.00000000        -7.41334014              
!                                                                              
! O: Sadlej pVTZ                                                               
! A. J. Sadlej, Collec. Czech. Chem. Commun.  53, 1995 (1988)                  
! A. J. Sadlej and M. Urban, J. Mol. Struct. (THEOCHEM) 234, 147 (1991)        
! A. J. Sadlej, Theor. Chim. Acta 79, 123 (1992)                               
! A. J. Sadlej, Theor. Chim. Acta 81, 45 (1992)                                
! A. J. Sadlej, Theor. Chim. Acta 81, 339 (1992)                               
!                                                                              
! (10S,6P,4D) -> [5S,3P,2D]                                                    
!                                                                              
!                                                                              
!  S functions                                                                 
F  10    5                                                                     
 10662.28500   0.000799   0.000000   0.000000   0.000000   0.000000            
  1599.70970   0.006153   0.000000   0.000000   0.000000   0.000000            
   364.72526   0.031157   0.000000   0.000000   0.000000   0.000000            
   103.65179   0.115596   0.000000   0.000000   0.000000   0.000000            
    33.90581   0.301552   0.000000   0.000000   0.000000   0.000000            
    12.28747   0.000000   0.444870   0.000000   0.000000   0.000000            
     4.75680   0.000000   0.243172   0.000000   0.000000   0.000000            
     1.00427   0.000000   0.000000   1.000000   0.000000   0.000000            
     0.30069   0.000000   0.000000   0.000000   1.000000   0.000000            
     0.09003   0.000000   0.000000   0.000000   0.000000   1.000000            
!                                                                              
!  P functions                                                                 
F   6    3                                                                     
    34.85646   0.015648   0.000000   0.000000                                  
     7.84313   0.098197   0.000000   0.000000                                  
     2.30625   0.307768   0.000000   0.000000                                  
     0.72316   0.492470   0.000000   0.000000                                  
     0.21488   0.000000   1.000000   0.000000                                  
     0.06385   0.000000   0.000000   1.000000                                  
!                                                                              
!                                                                              
!                                                                              
!                                                                              
Charge=0.0 Atoms=1 Blocks=3 1 1 1                                              
Mb                0.00000000         0.00000000        -2.67619378             
!                                                                              
! 3s2p1d mid-bond set                                                          
!                                                                              
! S-TYPE FUNCTIONS                                                             
!                                                                              
F   3   3                                                                      
  0.553063  1.0  0.0  0.0                                                      
  0.250866  0.0  1.0  0.0                                                      
  0.117111  0.0  0.0  1.0                                                      
!                                                                              
! P-TYPE FUNCTIONS                                                             
!                                                                              
F   2   2                                                                      
  0.392     1.0  0.0                                                           
  0.142     0.0  1.0                                                           
!                                                                              
! D-TYPE FUNCTIONS                                                             
!                                                                              
F   1   1                                                                      
  0.328     1.0                                                                
!                                                                              


       *******************************************************************
       *********** Output from DALTON general input processing ***********
       *******************************************************************

 --------------------------------------------------------------------------------
   Overall default print level:    0
   Print level for DALTON.STAT:    1

    AO-direct calculation (in sections where implemented)
    HERMIT 1- and 2-electron integral sections will be executed
    "Old" integral transformation used (limited to max 255 basis functions)
    Wave function sections will be executed (SIRIUS module)
 --------------------------------------------------------------------------------


   ****************************************************************************
   *************** Output of molecule and basis set information ***************
   ****************************************************************************


    The two title cards from your ".mol" input:
    ------------------------------------------------------------------------
 1:   OC with ClF                                                           
 2:   Basis is sadlej and type MC+                                          
    ------------------------------------------------------------------------

  INFO from READIN: Threshold for discarding integrals was    1.00D-16
  INFO from READIN: Threshold is reset to minimum value       1.00D-15

  Atomic type no.    1
  --------------------
  Nuclear charge:  17.00000
  Number of symmetry independent centers:    1
  Number of basis sets to read;    2

  Atomic type no.    2
  --------------------
  Nuclear charge:   9.00000
  Number of symmetry independent centers:    1
  Number of basis sets to read;    2

  Atomic type no.    3
  --------------------
  Nuclear charge:   0.00000
  Number of symmetry independent centers:    1
  Number of basis sets to read;    2

  Atomic type no.    4
  --------------------
  Nuclear charge:   0.00000
  Number of symmetry independent centers:    1
  Number of basis sets to read;    2

  Atomic type no.    5
  --------------------
  Nuclear charge:   0.00000
  Number of symmetry independent centers:    1
  Number of basis sets to read;    2


                         SYMGRP: Point group information
                         -------------------------------

Point group: C1 


                                 Isotopic Masses
                                 ---------------

                           Cl         34.968853
                           F          18.998403

                       Total mass:    53.967256 amu
                       Natural abundance:  75.770 %

 Center-of-mass coordinates (a.u.):    0.000000    0.000000    1.112216


  Atoms and basis sets
  --------------------

  Number of atom types :    5
  Total number of atoms:    5

  label    atoms   charge   prim   cont     basis
  ----------------------------------------------------------------------
  Cl          1   17.0000    64    32      [14s10p4d|7s5p2d]                                  
  F           1    9.0000    48    24      [10s6p4d|5s3p2d]                                   
  C           1    0.0000    28    14      [10s6p|5s3p]                                       
  O           1    0.0000    28    14      [10s6p|5s3p]                                       
  Mb          1    0.0000    14    14      [3s2p1d|3s2p1d]                                    
  ----------------------------------------------------------------------
  total:      5   26.0000   182    98
  ----------------------------------------------------------------------
  Spherical harmonic basis used.

  Threshold for neglecting AO integrals:  1.00D-15


  Cartesian Coordinates (a.u.)
  ----------------------------

  Total number of coordinates:   15
  Cl      :     1  x   0.0000000000    2  y   0.0000000000    3  z   0.0000000000
  F       :     4  x   0.0000000000    5  y   0.0000000000    6  z   3.1593839200
  C       :     7  x   0.0000000000    8  y   0.0000000000    9  z  -5.2912327700
  O       :    10  x   0.0000000000   11  y   0.0000000000   12  z  -7.4133401400
  Mb      :    13  x   0.0000000000   14  y   0.0000000000   15  z  -2.6761937800


   Interatomic separations (in Angstrom):
   --------------------------------------

            Cl          F           C           O           Mb    
            ------      ------      ------      ------      ------
 Cl    :    0.000000
 F     :    1.671874    0.000000
 C     :    2.800000    4.471874    0.000000
 O     :    3.922971    5.594845    1.122971    0.000000
 Mb    :    1.416181    3.088055    1.383819    2.506790    0.000000


  Max    interatomic separation is    5.5948 Angstrom (   10.5727 Bohr)
  between atoms    4 and    2, "O     " and "F     ".

  Min YX interatomic separation is    1.1230 Angstrom (    2.1221 Bohr)


  Bond distances (Angstrom):
  --------------------------

                  atom 1     atom 2       distance
                  ------     ------       --------
  bond distance:  F          Cl           1.671874


  Bond angles (degrees):
  ----------------------

                  atom 1     atom 2     atom 3         angle
                  ------     ------     ------         -----
     No angles found




 Principal moments of inertia (u*A**2) and principal axes
 --------------------------------------------------------

   IA       0.000000          0.000000    0.000000    1.000000
   IB      34.409251          0.000000    1.000000    0.000000
   IC      34.409251          1.000000    0.000000    0.000000


 Rotational constants
 --------------------

 The molecule is linear.

               B =        14687.30 MHz     (    0.489916 cm-1)


@  Nuclear repulsion energy :   48.427162976762 Hartree

  Number of floating/multiple basis set orbitals :    3


                     .---------------------------------------.
                     | Starting in Integral Section (HERMIT) |
                     `---------------------------------------'



    *************************************************************************
    ****************** Output from HERMIT input processing ******************
    *************************************************************************


 Default print level:        1

 * Nuclear model: Point charge

 Calculation of one-electron Hamiltonian integrals.

 Center of mass  (bohr):      0.000000000000      0.000000000000      1.112216061974
 Operator center (bohr):      0.000000000000      0.000000000000      0.000000000000
 Gauge origin    (bohr):      0.000000000000      0.000000000000      0.000000000000
 Dipole origin   (bohr):      0.000000000000      0.000000000000      0.000000000000


     ************************************************************************
     ************************** Output from HERINT **************************
     ************************************************************************

 >>>> Total CPU  time used in HERMIT:   0.19 seconds
 >>>> Total wall time used in HERMIT:   0.19 seconds


                        .----------------------------------.
                        | End of Integral Section (HERMIT) |
                        `----------------------------------'



                   .--------------------------------------------.
                   | Starting in Wave Function Section (SIRIUS) |
                   `--------------------------------------------'



                     +---------------------------------------+
                     ! Asymptotically Corrected XC Potential !
                     +---------------------------------------+



 Interpolation Scheme
 --------------------

      tanh Interpolation               
                                       


 Asymptotic Potential
 --------------------

      Asymp. Pot. From Multipole Exp.  


 Input Ionization Potentials
 ---------------------------

      Alpha IP          0.471
      Beta IP           0.471


 Interpolation Region Definition
 -------------------------------

      Bragg Radius 1    3.000
      Bragg Radius 2    4.000


 Settings for DFT calculation:
 -----------------------------

     Redefined thresholds:                                     1.00D-09    1.00D-10    2.00D-12
     Redefined threshold for number of electrons:              1.00D-02
     DFT radial quadrature accuracy and ang. expansion order:              1.00D-13  35

 *** Output from Huckel module :

     Using EWMO model:          T
     Using EHT  model:          F
     Number of Huckel orbitals each symmetry:   19

 EWMO - Energy Weighted Maximum Overlap - is a Huckel type method,
        which normally is better than Extended Huckel Theory.
 Reference: Linderberg and Ohrn, Propagators in Quantum Chemistry (Wiley, 1973)

 Huckel EWMO eigenvalues for symmetry :  1
         -104.883946     -26.383358     -10.609138      -8.072723      -8.072229
           -8.072229      -1.704303      -1.098687      -0.760921      -0.760921
           -0.712191      -0.477349      -0.477349      -0.370851      -0.055556
           -0.055556      -0.053657      -0.053657      -0.048359

 **********************************************************************
 *SIRIUS* a direct, restricted step, second order MCSCF program       *
 **********************************************************************

 
     Date and time (Linux)  : Thu Mar  6 15:30:42 2014
     Host name              : whirligig                               

 Title lines from ".mol" input file:
       OC with ClF                                                           
       Basis is sadlej and type MC+                                          

 Print level on unit LUPRI =   2 is   0
 Print level on unit LUW4  =   2 is   5

@    Restricted, closed shell Kohn-Sham DFT calculation.
 Fock matrices are calculated directly without use of integrals on disk.

 Initial molecular orbitals are obtained according to
 ".MOSTART EWMO  " input option

     Wave function specification
     ============================
@    For the wave function of type :      >>> KS-DFT <<<
@    Number of closed shell electrons          26
@    Number of electrons in active shells       0
@    Total charge of the molecule               0

@    Spin multiplicity and 2 M_S                1         0
     Total number of symmetries                 1
@    Reference state symmetry                   1
 
     This is a DFT calculation of type: PBE0
 Weighted mixed functional:
               HF exchange:    0.25000
                      pbex:    0.75000
                      PBEC:    1.00000

     Orbital specifications
     ======================
     Abelian symmetry species          All |    1
                                       --- |  ---
@    Occupied SCF orbitals              13 |   13
     Secondary orbitals                 85 |   85
     Total number of orbitals           98 |   98
     Number of basis functions          98 |   98

     Optimization information
     ========================
@    Number of configurations                 1
@    Number of orbital rotations           1105
     ------------------------------------------
@    Total number of variables             1106

     Maximum number of Fock   iterations      0
     Maximum number of DIIS   iterations     60
     Maximum number of QC-SCF iterations     60
     Threshold for SCF convergence     1.00D-06
 
     This is a DFT calculation of type: PBE0
 Weighted mixed functional:
               HF exchange:    0.25000
                      pbex:    0.75000
                      PBEC:    1.00000


 >>>>> DIIS optimization of Hartree-Fock <<<<<

 C1-DIIS algorithm; max error vectors =    5

 Iter      Total energy        Error norm    Delta(E)  DIIS dim.
 -----------------------------------------------------------------------------
   1  Screening settings (-IFTHRS, DIFDEN)   -7    F
      K-S energy, electrons, error :    -29.054175560347  25.9999984435   -1.56D-06
@  1    -559.622296493        1.77459D+00   -5.60D+02    1
      Virial theorem: -V/T =      2.000886
@      MULPOP Cl      0.47; F      -0.46; 
      E_HOMO Alpha      -0.335769348312  E_HOMO Beta      -0.335769348312     v_xc(inf)      0.135030651688
      E_LUMO Alpha      -0.151684541807  E_LUMO Beta      -0.151684541807
 -----------------------------------------------------------------------------
   2  Screening settings (-IFTHRS, DIFDEN)   -8    F
      K-S energy, electrons, error :    -28.874878734728  25.9999991485   -8.52D-07
@  2    -559.525439398        2.19225D+00    9.69D-02    2
      Virial theorem: -V/T =      2.003334
@      MULPOP Cl     -0.62; F      -0.02; 
      E_HOMO Alpha      -0.358877563268  E_HOMO Beta      -0.358877563268     v_xc(inf)      0.111922436732
      E_LUMO Alpha      -0.156630803530  E_LUMO Beta      -0.156630803530
 -----------------------------------------------------------------------------
   3  Screening settings (-IFTHRS, DIFDEN)   -8    F
      K-S energy, electrons, error :    -29.086607734457  25.9999991179   -8.82D-07
@  3    -559.727358012        7.58998D-01   -2.02D-01    3
      Virial theorem: -V/T =      2.001430
@      MULPOP Cl     -0.24; F      -0.56; 
      E_HOMO Alpha      -0.344221295758  E_HOMO Beta      -0.344221295758     v_xc(inf)      0.126578704242
      E_LUMO Alpha      -0.124289922755  E_LUMO Beta      -0.124289922755
 -----------------------------------------------------------------------------
   4  Screening settings (-IFTHRS, DIFDEN)   -9    F
      K-S energy, electrons, error :    -28.973002326269  25.9999990802   -9.20D-07
@  4    -559.753537613        1.69354D-01   -2.62D-02    4
      Virial theorem: -V/T =      2.003209
@      MULPOP Cl     -0.36; F      -0.42; 
      E_HOMO Alpha      -0.354651059248  E_HOMO Beta      -0.354651059248     v_xc(inf)      0.116148940752
      E_LUMO Alpha      -0.134608334759  E_LUMO Beta      -0.134608334759
 -----------------------------------------------------------------------------
   5  Screening settings (-IFTHRS, DIFDEN)   -9    F
      K-S energy, electrons, error :    -29.001833054020  25.9999990865   -9.14D-07
@  5    -559.755002171        1.74776D-02   -1.46D-03    5
      Virial theorem: -V/T =      2.002585
@      MULPOP Cl     -0.35; F      -0.44; 
      E_HOMO Alpha      -0.353766041217  E_HOMO Beta      -0.353766041217     v_xc(inf)      0.117033958783
      E_LUMO Alpha      -0.133503885268  E_LUMO Beta      -0.133503885268
 -----------------------------------------------------------------------------
   6  Screening settings (-IFTHRS, DIFDEN)  -10    F
      K-S energy, electrons, error :    -28.998555624287  25.9999990836   -9.16D-07
@  6    -559.755021062        3.87490D-03   -1.89D-05    5
      Virial theorem: -V/T =      2.002668
@      MULPOP Cl     -0.36; F      -0.44; 
      E_HOMO Alpha      -0.353883405656  E_HOMO Beta      -0.353883405656     v_xc(inf)      0.116916594344
      E_LUMO Alpha      -0.133561496097  E_LUMO Beta      -0.133561496097
 -----------------------------------------------------------------------------
   7  Screening settings (-IFTHRS, DIFDEN)  -11    F
      K-S energy, electrons, error :    -28.998985897449  25.9999990836   -9.16D-07
@  7    -559.755022116        4.17650D-04   -1.05D-06    5
      Virial theorem: -V/T =      2.002660
@      MULPOP Cl     -0.35; F      -0.44; 
      E_HOMO Alpha      -0.353914275794  E_HOMO Beta      -0.353914275794     v_xc(inf)      0.116885724206
      E_LUMO Alpha      -0.133596131868  E_LUMO Beta      -0.133596131868
 -----------------------------------------------------------------------------
   8  Screening settings (-IFTHRS, DIFDEN)  -12    F
      K-S energy, electrons, error :    -28.999060041618  25.9999990835   -9.17D-07
@  8    -559.755022121        1.40208D-04   -4.97D-09    5
      Virial theorem: -V/T =      2.002658
@      MULPOP Cl     -0.35; F      -0.44; 
      E_HOMO Alpha      -0.353907182448  E_HOMO Beta      -0.353907182448     v_xc(inf)      0.116892817552
      E_LUMO Alpha      -0.133588256082  E_LUMO Beta      -0.133588256082
 -----------------------------------------------------------------------------
   9  Screening settings (-IFTHRS, DIFDEN)  -12    F
      K-S energy, electrons, error :    -28.999041450427  25.9999990835   -9.17D-07
@  9    -559.755022137        1.11760D-05   -1.56D-08    5
      Virial theorem: -V/T =      2.002659
@      MULPOP Cl     -0.35; F      -0.44; 
      E_HOMO Alpha      -0.353909393324  E_HOMO Beta      -0.353909393324     v_xc(inf)      0.116890606676
      E_LUMO Alpha      -0.133590034138  E_LUMO Beta      -0.133590034138
 -----------------------------------------------------------------------------
  10  Screening settings (-IFTHRS, DIFDEN)  -12    F
      K-S energy, electrons, error :    -28.999043273386  25.9999990835   -9.17D-07
@ 10    -559.755022136        9.11320D-06    5.43D-10    5
      Virial theorem: -V/T =      2.002659
@      MULPOP Cl     -0.35; F      -0.44; 
      E_HOMO Alpha      -0.353908884874  E_HOMO Beta      -0.353908884874     v_xc(inf)      0.116891115126
      E_LUMO Alpha      -0.133589641811  E_LUMO Beta      -0.133589641811
 -----------------------------------------------------------------------------
  11  Screening settings (-IFTHRS, DIFDEN)  -12    F
      K-S energy, electrons, error :    -28.999043184864  25.9999990835   -9.17D-07
@ 11    -559.755022137        6.72072D-07   -3.38D-10    5

@ *** DIIS converged in  11 iterations !
@     Converged SCF energy, gradient:   -559.755022136631    6.72D-07
    - total time used in SIRFCK :              0.00 seconds


 *** SCF orbital energy analysis ***

 Only the five lowest virtual orbital energies printed in each symmetry.

 Number of electrons :   26
 Orbital occupations :   13

 Sym       Kohn-Sham orbital energies

  1   -101.82882098   -24.84226234    -9.62578736    -7.36876289    -7.35005509
        -7.35005509    -1.26815853    -0.86618843    -0.55390810    -0.50316223
        -0.50316223    -0.35390882    -0.35390882    -0.13358960     0.02797845
         0.07413576     0.07413576     0.07637834

    E(LUMO) :    -0.13358960 au (symmetry 1)
  - E(HOMO) :    -0.35390882 au (symmetry 1)
  ------------------------------------------
    gap     :     0.22031922 au

 >>> Writing SIRIFC interface file <<<

 >>>> CPU and wall time for SCF :      58.944      59.325


                       .-----------------------------------.
                       | >>> Final results from SIRIUS <<< |
                       `-----------------------------------'


@    Spin multiplicity:           1
@    Spatial symmetry:            1
@    Total charge of molecule:    0

@    Final DFT energy:           -559.755022136631                 
@    Nuclear repulsion:            48.427162976762
@    Electronic energy:          -608.182185113393

@    Final gradient norm:           0.000000672072

 
     Date and time (Linux)  : Thu Mar  6 15:31:41 2014
     Host name              : whirligig                               

 (Only coefficients >0.0100 are printed.)

 Molecular orbitals for symmetry species  1
 ------------------------------------------

    Orbital         9       10       11       12       13       14       15
   2 Cl  :1s     0.0287  -0.0000  -0.0000   0.0000  -0.0000   0.0245   0.0245
   3 Cl  :1s    -0.0624   0.0000   0.0000   0.0000   0.0000  -0.0537  -0.0545
   4 Cl  :1s    -0.1050   0.0000   0.0000  -0.0000   0.0000  -0.0941  -0.0924
   5 Cl  :1s     0.2115  -0.0000  -0.0000   0.0000  -0.0000   0.2107   0.1600
   6 Cl  :1s    -0.0798   0.0000  -0.0000  -0.0000   0.0000  -0.0530   0.2566
   7 Cl  :1s    -0.0398   0.0000  -0.0000  -0.0000   0.0000   0.0048   1.8689
   8 Cl  :2px    0.0000  -0.0013   0.1206   0.0016  -0.2663  -0.0000   0.0000
   9 Cl  :2py    0.0000   0.1206   0.0013  -0.2663  -0.0016  -0.0000  -0.0000
  10 Cl  :2pz    0.1776  -0.0000   0.0000   0.0000   0.0000  -0.2290   0.0277
  11 Cl  :2px   -0.0000   0.0014  -0.1291  -0.0017   0.2988   0.0000  -0.0000
  12 Cl  :2py   -0.0000  -0.1291  -0.0014   0.2988   0.0017  -0.0000   0.0000
  13 Cl  :2pz   -0.1976   0.0000  -0.0000  -0.0000  -0.0000   0.2569  -0.0320
  14 Cl  :2px   -0.0000   0.0024  -0.2204  -0.0029   0.5007   0.0000  -0.0000
  15 Cl  :2py    0.0000  -0.2204  -0.0024   0.5007   0.0029   0.0000   0.0000
  16 Cl  :2pz   -0.2442  -0.0000   0.0000   0.0000  -0.0000   0.5107  -0.0796
  17 Cl  :2px   -0.0000   0.0008  -0.0723  -0.0017   0.2932   0.0000   0.0000
  18 Cl  :2py   -0.0000  -0.0723  -0.0008   0.2932   0.0017  -0.0000  -0.0000
  19 Cl  :2pz    0.0950  -0.0000  -0.0000   0.0000   0.0000   0.4831  -0.2722
  20 Cl  :2px   -0.0000  -0.0001   0.0075  -0.0001   0.0192   0.0000   0.0000
  21 Cl  :2py    0.0000   0.0075   0.0001   0.0192   0.0001  -0.0000   0.0000
  22 Cl  :2pz    0.0003  -0.0000   0.0000   0.0000  -0.0000   0.1246  -1.1987
  24 Cl  :3d1-  -0.0000  -0.0586  -0.0006  -0.0188  -0.0001   0.0000  -0.0000
  25 Cl  :3d0   -0.1091  -0.0000  -0.0000  -0.0000   0.0000  -0.1758   0.0437
  26 Cl  :3d1+  -0.0000   0.0006  -0.0586   0.0001  -0.0188   0.0000  -0.0000
  29 Cl  :3d1-  -0.0000   0.0246   0.0003  -0.0104  -0.0001   0.0000  -0.0000
  30 Cl  :3d0   -0.0158  -0.0000  -0.0000  -0.0000   0.0000  -0.0772   0.6073
  31 Cl  :3d1+   0.0000  -0.0003   0.0246   0.0001  -0.0104   0.0000  -0.0000
  33 F   :1s    -0.0163  -0.0000   0.0000  -0.0000   0.0000   0.0215  -0.0080
  34 F   :1s    -0.0404  -0.0000   0.0000  -0.0000   0.0000   0.0539  -0.0210
  35 F   :1s     0.0929   0.0000  -0.0000   0.0000  -0.0000  -0.1295   0.0625
  36 F   :1s     0.1049   0.0000   0.0000  -0.0000   0.0000  -0.2030   0.0103
  37 F   :1s    -0.0015   0.0000   0.0000   0.0000  -0.0000  -0.0901  -0.3185
  38 F   :2px   -0.0000   0.0075  -0.6760   0.0022  -0.3802  -0.0000   0.0000
  39 F   :2py   -0.0000  -0.6760  -0.0075  -0.3802  -0.0022  -0.0000  -0.0000
  40 F   :2pz    0.5732  -0.0000  -0.0000   0.0000  -0.0000   0.4872   0.0316
  41 F   :2px    0.0000   0.0032  -0.2879   0.0010  -0.1737  -0.0000   0.0000
  42 F   :2py    0.0000  -0.2879  -0.0032  -0.1737  -0.0010  -0.0000   0.0000
  43 F   :2pz    0.2188  -0.0000  -0.0000   0.0000   0.0000   0.2290   0.0894
  44 F   :2px    0.0000   0.0007  -0.0594   0.0002  -0.0370  -0.0000   0.0000
  45 F   :2py    0.0000  -0.0594  -0.0007  -0.0370  -0.0002   0.0000   0.0000
  46 F   :2pz    0.0312  -0.0000  -0.0000   0.0000   0.0000   0.0785   0.1511
  48 F   :3d1-   0.0000   0.0153   0.0002  -0.0020  -0.0000   0.0000  -0.0000
  49 F   :3d0   -0.0172   0.0000   0.0000   0.0000   0.0000   0.0032   0.0034
  50 F   :3d1+   0.0000  -0.0002   0.0153   0.0000  -0.0020  -0.0000  -0.0000
  53 F   :3d1-  -0.0000   0.0265   0.0003  -0.0022  -0.0000   0.0000  -0.0000
  54 F   :3d0   -0.0002   0.0000   0.0000  -0.0000  -0.0000   0.0358   0.0082
  55 F   :3d1+  -0.0000  -0.0003   0.0265   0.0000  -0.0022   0.0000  -0.0000
  59 C   :1s    -0.0134   0.0000  -0.0000  -0.0000   0.0000  -0.0119  -0.0136
  60 C   :1s     0.0276  -0.0000   0.0000   0.0000  -0.0000   0.0035   0.1673
  61 C   :1s     0.0090  -0.0000   0.0000   0.0000  -0.0000   0.0116  -2.8474
  67 C   :2pz   -0.0048   0.0000   0.0000  -0.0000  -0.0000  -0.0009   1.1449
  70 C   :2pz    0.0061  -0.0000   0.0000   0.0000  -0.0000  -0.0038  -1.1606
  74 O   :1s    -0.0025   0.0000   0.0000  -0.0000  -0.0000   0.0013   0.1017
  75 O   :1s    -0.0062   0.0000   0.0000  -0.0000  -0.0000   0.0037   1.7121
  81 O   :2pz    0.0017   0.0000   0.0000  -0.0000  -0.0000   0.0032   0.0900
  84 O   :2pz   -0.0049   0.0000  -0.0000  -0.0000   0.0000   0.0048   0.8471
  85 Mb  :1s    -0.0268   0.0000  -0.0000  -0.0000   0.0000  -0.0253   0.0421
  86 Mb  :1s     0.1487  -0.0000   0.0000   0.0000  -0.0000   0.1249  -0.2113
  87 Mb  :1s     0.2253  -0.0000  -0.0000   0.0000  -0.0000   0.1569  -1.9885
  88 Mb  :2px    0.0000   0.0001  -0.0107  -0.0000   0.0030  -0.0000   0.0000
  89 Mb  :2py   -0.0000  -0.0107  -0.0001   0.0030   0.0000  -0.0000   0.0000
  90 Mb  :2pz    0.0617  -0.0000   0.0000   0.0000   0.0000   0.0567  -0.0471
  91 Mb  :2px    0.0000  -0.0001   0.0119   0.0000  -0.0018   0.0000  -0.0000
  92 Mb  :2py    0.0000   0.0119   0.0001  -0.0018  -0.0000   0.0000  -0.0000
  93 Mb  :2pz    0.1529  -0.0000   0.0000   0.0000  -0.0000   0.1035   0.3261
  95 Mb  :3d1-  -0.0000  -0.0133  -0.0001   0.0024   0.0000  -0.0000  -0.0000
  96 Mb  :3d0    0.0478  -0.0000   0.0000   0.0000  -0.0000   0.0461  -0.0252
  97 Mb  :3d1+   0.0000   0.0001  -0.0133  -0.0000   0.0024   0.0000  -0.0000



 >>>> Total CPU  time used in SIRIUS :     59.02 seconds
 >>>> Total wall time used in SIRIUS :     59.40 seconds

 
     Date and time (Linux)  : Thu Mar  6 15:31:41 2014
     Host name              : whirligig                               


                     .---------------------------------------.
                     | End of Wave Function Section (SIRIUS) |
                     `---------------------------------------'

 >>>> Total CPU  time used in DALTON:  59.21 seconds
 >>>> Total wall time used in DALTON:  1 minute   0 seconds

 
     Date and time (Linux)  : Thu Mar  6 15:31:41 2014
     Host name              : whirligig                               

Dalton interface to CamCASP

 ******** 6Mar14 

     48.4271629767616218   -608.1821851133927339      0.0000000000000000   -559.7550221366311689
     1     0     1     0
    13     0    13    98    98     1  1105  1105
     1  9604     0     0  4851  9604     1     1
     2     3     4     5     6     7     8     2
     1     4     3     6     5     8
Summary:
 Number of occupied orbitals :     13
 Number of virtual  orbitals :     85
 Number of molecular orbitals:     98
 Number of basis functions   :     98
 SCF energy                 :  -0.559755E+03 Hartree
 Nuclear potential energy   :   0.484272E+02 Hartree
